----- GAMESS execution script 'rungms' -----
This job is running on host tiger-r12n8
under operating system Linux at Sun Oct 9 17:51:10 EDT 2016
Available scratch disk space (Kbyte units) at beginning of the job is
Filesystem     1K-blocks    Used Available Use% Mounted on
/dev/sda3      426919152 7667312 397558864   2% /scratch
GAMESS temporary binary files will be written to /tmp
GAMESS supplementary output files will be written to /scratch/gpfs/ckrauter/Test_embedding/prog_test/EmbeddingIntegralGenerator/examples/GAMESS/C/Formaldehyde/interface_gamess/tmp
Copying input file gamess.inp to your run's scratch directory...

 Distributed Data Interface kickoff program.
 Initiating 1 compute processes on 1 nodes to run the following command:
 /scratch/gpfs/ckrauter/GAMESS/embedded_recip/gamess/gamess.00.x gamess 

          ******************************************************
          *         GAMESS VERSION =  5 DEC 2014 (R1)          *
          *             FROM IOWA STATE UNIVERSITY             *
          * M.W.SCHMIDT, K.K.BALDRIDGE, J.A.BOATZ, S.T.ELBERT, *
          *   M.S.GORDON, J.H.JENSEN, S.KOSEKI, N.MATSUNAGA,   *
          *          K.A.NGUYEN, S.J.SU, T.L.WINDUS,           *
          *       TOGETHER WITH M.DUPUIS, J.A.MONTGOMERY       *
          *         J.COMPUT.CHEM.  14, 1347-1363(1993)        *
          **************** 64 BIT INTEL VERSION ****************

  SINCE 1993, STUDENTS AND POSTDOCS WORKING AT IOWA STATE UNIVERSITY
  AND ALSO IN THEIR VARIOUS JOBS AFTER LEAVING ISU HAVE MADE IMPORTANT
  CONTRIBUTIONS TO THE CODE:
     IVANA ADAMOVIC, CHRISTINE AIKENS, YURI ALEXEEV, POOJA ARORA,
     ANDREY ASADCHEV, ROB BELL, PRADIPTA BANDYOPADHYAY, JONATHAN BENTZ,
     BRETT BODE, KURT BRORSEN, CALEB CARLIN, GALINA CHABAN, WEI CHEN,
     CHEOL HO CHOI, PAUL DAY, ALBERT DEFUSCO, NUWAN DESILVA, TIM DUDLEY,
     DMITRI FEDOROV, GRAHAM FLETCHER, MARK FREITAG, KURT GLAESEMANN,
     DAN KEMP, GRANT MERRILL, NORIYUKI MINEZAWA, JONATHAN MULLIN,
     TAKESHI NAGATA, SEAN NEDD, HEATHER NETZLOFF, BOSILJKA NJEGIC, RYAN OLSON,
     MIKE PAK, SPENCER PRUITT, LUKE ROSKOP, JIM SHOEMAKER, LYUDMILA SLIPCHENKO,
     TONY SMITH, SAROM SOK, JIE SONG, TETSUYA TAKETSUGU, SIMON WEBB,
     PENG XU, SOOHAENG YOO, FEDERICO ZAHARIEV

  ADDITIONAL CODE HAS BEEN PROVIDED BY COLLABORATORS IN OTHER GROUPS:
     IOWA STATE UNIVERSITY:
          JOE IVANIC, AARON WEST, LAIMUTIS BYTAUTAS, KLAUS RUEDENBERG
     UNIVERSITY OF TOKYO: KIMIHIKO HIRAO, TAKAHITO NAKAJIMA,
          TAKAO TSUNEDA, MUNEAKI KAMIYA, SUSUMU YANAGISAWA,
          KIYOSHI YAGI, MAHITO CHIBA, SEIKEN TOKURA, NAOAKI KAWAKAMI
     UNIVERSITY OF AARHUS: FRANK JENSEN
     UNIVERSITY OF IOWA: VISVALDAS KAIRYS, HUI LI
     NATIONAL INST. OF STANDARDS AND TECHNOLOGY: WALT STEVENS, DAVID GARMER
     UNIVERSITY OF PISA: BENEDETTA MENNUCCI, JACOPO TOMASI
     UNIVERSITY OF MEMPHIS: HENRY KURTZ, PRAKASHAN KORAMBATH
     UNIVERSITY OF ALBERTA: TOBY ZENG, MARIUSZ KLOBUKOWSKI
     UNIVERSITY OF NEW ENGLAND: MARK SPACKMAN
     MIE UNIVERSITY: HIROAKI UMEDA
     NAT. INST. OF ADVANCED INDUSTRIAL SCIENCE AND TECHNOLOGY: KAZUO KITAURA
     MICHIGAN STATE UNIVERSITY:
          KAROL KOWALSKI, MARTA WLOCH, JEFFREY GOUR, JESSE LUTZ,
          WEI LI, PIOTR PIECUCH
     UNIVERSITY OF SILESIA: MONIKA MUSIAL, STANISLAW KUCHARSKI
     FACULTES UNIVERSITAIRES NOTRE-DAME DE LA PAIX:
          OLIVIER QUINET, BENOIT CHAMPAGNE
     UNIVERSITY OF CALIFORNIA - SANTA BARBARA: BERNARD KIRTMAN
     INSTITUTE FOR MOLECULAR SCIENCE:
          KAZUYA ISHIMURA, MICHIO KATOUDA, AND SHIGERU NAGASE
     UNIVERSITY OF NOTRE DAME: ANNA POMOGAEVA, DAN CHIPMAN
     KYUSHU UNIVERSITY:
          HARUYUKI NAKANO,
          FENG LONG GU, JACEK KORCHOWIEC, MARCIN MAKOWSKI, AND YURIKO AOKI,
          HIROTOSHI MORI AND EISAKU MIYOSHI
     PENNSYLVANIA STATE UNIVERSITY:
          TZVETELIN IORDANOV, CHET SWALINA, JONATHAN SKONE,
          SHARON HAMMES-SCHIFFER
     WASEDA UNIVERSITY:
          MASATO KOBAYASHI, TOMOKO AKAMA, TSUGUKI TOUMA,
          TAKESHI YOSHIKAWA, YASUHIRO IKABATA, HIROMI NAKAI
     NANJING UNIVERSITY: SHUHUA LI
     UNIVERSITY OF NEBRASKA:
          PEIFENG SU, DEJUN SI, NANDUN THELLAMUREGE, YALI WANG, HUI LI
     UNIVERSITY OF ZURICH: ROBERTO PEVERATI, KIM BALDRIDGE
     N. COPERNICUS UNIVERSITY AND JACKSON STATE UNIVERSITY:
          MARIA BARYSZ
     UNIVERSITY OF COPENHAGEN: CASPER STEINMANN
     TOKYO INSTITUTE OF TECHNOLOGY: HIROYA NAKATA
     NAGOYA UNIVERSITY: YOSHIO NISHIMOTO, STEPHAN IRLE

 EXECUTION OF GAMESS BEGUN Sun Oct  9 17:51:11 2016

            ECHO OF THE FIRST FEW INPUT CARDS -
 INPUT CARD> $contrl units=angs scftyp=rhf coord=unique mult=1  $end                        
 INPUT CARD> $contrl runtyp=energy nosym=1 maxit=200 $end                                   
 INPUT CARD> $SYSTEM MWORDS=300 $END                                                        
 INPUT CARD> $guess  guess=huckel  $end                                                     
 INPUT CARD> $contrl icut=10 $end                                                           
 INPUT CARD>                                                                                
 INPUT CARD> $data                                                                          
 INPUT CARD> Formaldehyde                                                                   
 INPUT CARD> C1                                                                             
 INPUT CARD>C  6 3.594222    6.218747    8.509041                                           
 INPUT CARD>S   10                                                                          
 INPUT CARD>  1   8236.0000000              0.0005310                                       
 INPUT CARD>  2   1235.0000000              0.0041080                                       
 INPUT CARD>  3    280.8000000              0.0210870                                       
 INPUT CARD>  4     79.2700000              0.0818530                                       
 INPUT CARD>  5     25.5900000              0.2348170                                       
 INPUT CARD>  6      8.9970000              0.4344010                                       
 INPUT CARD>  7      3.3190000              0.3461290                                       
 INPUT CARD>  8      0.9059000              0.0393780                                       
 INPUT CARD>  9      0.3643000             -0.0089830                                       
 INPUT CARD> 10      0.1285000              0.0023850                                       
 INPUT CARD>S   10                                                                          
 INPUT CARD>  1   8236.0000000             -0.0001130                                       
 INPUT CARD>  2   1235.0000000             -0.0008780                                       
 INPUT CARD>  3    280.8000000             -0.0045400                                       
 INPUT CARD>  4     79.2700000             -0.0181330                                       
 INPUT CARD>  5     25.5900000             -0.0557600                                       
 INPUT CARD>  6      8.9970000             -0.1268950                                       
 INPUT CARD>  7      3.3190000             -0.1703520                                       
 INPUT CARD>  8      0.9059000              0.1403820                                       
 INPUT CARD>  9      0.3643000              0.5986840                                       
 INPUT CARD> 10      0.1285000              0.3953890                                       
 INPUT CARD>S   1                                                                           
 INPUT CARD>  1      0.9059000              1.0000000                                       
 INPUT CARD>S   1                                                                           
 INPUT CARD>  1      0.1285000              1.0000000                                       
 INPUT CARD>P   5                                                                           
 INPUT CARD>  1     18.7100000              0.0140310                                       
 INPUT CARD>  2      4.1330000              0.0868660                                       
 INPUT CARD>  3      1.2000000              0.2902160                                       
 INPUT CARD>  4      0.3827000              0.5010080                                       
 INPUT CARD>  5      0.1209000              0.3434060                                       
 INPUT CARD>P   1                                                                           
 INPUT CARD>  1      0.3827000              1.0000000                                       
 INPUT CARD>P   1                                                                           
 INPUT CARD>  1      0.1209000              1.0000000                                       
 INPUT CARD>D   1                                                                           
 INPUT CARD>  1      1.0970000              1.0000000                                       
 INPUT CARD>D   1                                                                           
 INPUT CARD>  1      0.3180000              1.0000000                                       
  300000000 WORDS OF MEMORY AVAILABLE


     RUN TITLE
     ---------
  Formaldehyde                                                                   

 THE POINT GROUP OF THE MOLECULE IS C1      
 THE ORDER OF THE PRINCIPAL AXIS IS     0

 ATOM      ATOMIC                      COORDINATES (BOHR)
           CHARGE         X                   Y                   Z
 C           6.0     6.7920947190       11.7517278170       16.0797559083
 O           8.0     5.5111987603       12.1363059527       14.2390475230
 H           1.0     6.6684593963        9.9564408855       17.1977933917
 H           1.0     8.1964030128       13.1618016648       16.8026044445

          INTERNUCLEAR DISTANCES (ANGS.)
          ------------------------------

                1 C          2 O          3 H          4 H     

   1 C       0.0000000    1.2040151 *  1.1211003 *  1.1204196 *
   2 O       1.2040151 *  0.0000000    2.0388947 *  2.0381080 *
   3 H       1.1211003 *  2.0388947 *  0.0000000    1.8906611 *
   4 H       1.1204196 *  2.0381080 *  1.8906611 *  0.0000000  

  * ... LESS THAN  3.000


     ATOMIC BASIS SET
     ----------------
 THE CONTRACTED PRIMITIVE FUNCTIONS HAVE BEEN UNNORMALIZED
 THE CONTRACTED BASIS FUNCTIONS ARE NOW NORMALIZED TO UNITY

  SHELL TYPE  PRIMITIVE        EXPONENT          CONTRACTION COEFFICIENT(S)

 C         

      1   S       1          8236.0000000    0.000530999862
      1   S       2          1235.0000000    0.004107998930
      1   S       3           280.8000000    0.021086994508
      1   S       4            79.2700000    0.081852978681
      1   S       5            25.5900000    0.234816938842
      1   S       6             8.9970000    0.434400886860
      1   S       7             3.3190000    0.346128909851
      1   S       8             0.9059000    0.039377989744
      1   S       9             0.3643000   -0.008982997660
      1   S      10             0.1285000    0.002384999379

      2   S      11          8236.0000000   -0.000112999941
      2   S      12          1235.0000000   -0.000877999545
      2   S      13           280.8000000   -0.004539997647
      2   S      14            79.2700000   -0.018132990601
      2   S      15            25.5900000   -0.055759971097
      2   S      16             8.9970000   -0.126894934224
      2   S      17             3.3190000   -0.170351911698
      2   S      18             0.9059000    0.140381927233
      2   S      19             0.3643000    0.598683689671
      2   S      20             0.1285000    0.395388795049

      3   S      21             0.9059000    1.000000000000

      4   S      22             0.1285000    1.000000000000

      5   P      23            18.7100000    0.014030998377
      5   P      24             4.1330000    0.086865989953
      5   P      25             1.2000000    0.290215966432
      5   P      26             0.3827000    0.501007942050
      5   P      27             0.1209000    0.343405960280

      6   P      28             0.3827000    1.000000000000

      7   P      29             0.1209000    1.000000000000

      8   D      30             1.0970000    1.000000000000

      9   D      31             0.3180000    1.000000000000

     10   F      32             0.7610000    1.000000000000

 O         

     11   S      33         15330.0000000    0.000507999668
     11   S      34          2299.0000000    0.003928997434
     11   S      35           522.4000000    0.020242986778
     11   S      36           147.3000000    0.079180948281
     11   S      37            47.5500000    0.230686849322
     11   S      38            16.7600000    0.433117717100
     11   S      39             6.2070000    0.350259771220
     11   S      40             1.7520000    0.042727972091
     11   S      41             0.6882000   -0.008153994674
     11   S      42             0.2384000    0.002380998445

     12   S      43         15330.0000000   -0.000115000060
     12   S      44          2299.0000000   -0.000895000470
     12   S      45           522.4000000   -0.004636002433
     12   S      46           147.3000000   -0.018724009827
     12   S      47            47.5500000   -0.058463030684
     12   S      48            16.7600000   -0.136463071622
     12   S      49             6.2070000   -0.175740092236
     12   S      50             1.7520000    0.160934084466
     12   S      51             0.6882000    0.603418316702
     12   S      52             0.2384000    0.378765198793

     13   S      53             1.7520000    1.000000000000

     14   S      54             0.2384000    1.000000000000

     15   P      55            34.4600000    0.015927990743
     15   P      56             7.7490000    0.099739942032
     15   P      57             2.2800000    0.310491819545
     15   P      58             0.7156000    0.491025714620
     15   P      59             0.2140000    0.336336804524

     16   P      60             0.7156000    1.000000000000

     17   P      61             0.2140000    1.000000000000

     18   D      62             2.3140000    1.000000000000

     19   D      63             0.6450000    1.000000000000

     20   F      64             1.4280000    1.000000000000

 H         

     21   S      65            33.8700000    0.006067999217
     21   S      66             5.0950000    0.045307994155
     21   S      67             1.1590000    0.202821973836
     21   S      68             0.3258000    0.503902934996
     21   S      69             0.1027000    0.383420950538

     22   S      70             0.3258000    1.000000000000

     23   S      71             0.1027000    1.000000000000

     24   P      72             1.4070000    1.000000000000

     25   P      73             0.3880000    1.000000000000

     26   D      74             1.0570000    1.000000000000

 H         

     27   S      75            33.8700000    0.006067999217
     27   S      76             5.0950000    0.045307994155
     27   S      77             1.1590000    0.202821973836
     27   S      78             0.3258000    0.503902934996
     27   S      79             0.1027000    0.383420950538

     28   S      80             0.3258000    1.000000000000

     29   S      81             0.1027000    1.000000000000

     30   P      82             1.4070000    1.000000000000

     31   P      83             0.3880000    1.000000000000

     32   D      84             1.0570000    1.000000000000

 TOTAL NUMBER OF BASIS SET SHELLS             =   32
 NUMBER OF CARTESIAN GAUSSIAN BASIS FUNCTIONS =  100
 NUMBER OF ELECTRONS                          =   16
 CHARGE OF MOLECULE                           =    0
 SPIN MULTIPLICITY                            =    1
 NUMBER OF OCCUPIED ORBITALS (ALPHA)          =    8
 NUMBER OF OCCUPIED ORBITALS (BETA )          =    8
 TOTAL NUMBER OF ATOMS                        =    4
 THE NUCLEAR REPULSION ENERGY IS       31.1957658394

     $CONTRL OPTIONS
     ---------------
 SCFTYP=RHF          RUNTYP=ENERGY       EXETYP=RUN     
 MPLEVL=       0     CITYP =NONE         CCTYP =NONE         VBTYP =NONE    
 DFTTYP=NONE         TDDFT =NONE    
 MULT  =       1     ICHARG=       0     NZVAR =       0     COORD =UNIQUE  
 PP    =NONE         RELWFN=NONE         LOCAL =NONE         NUMGRD=       F
 ISPHER=      -1     NOSYM =       1     MAXIT =     200     UNITS =ANGS    
 PLTORB=       F     MOLPLT=       F     AIMPAC=       F     FRIEND=        
 NPRINT=       7     IREST =       0     GEOM  =INPUT   
 NORMF =       0     NORMP =       0     ITOL  =      20     ICUT  =      10
 INTTYP=BEST         GRDTYP=BEST         QMTTOL= 1.0E-06

     $SYSTEM OPTIONS
     ---------------
  REPLICATED MEMORY=   300000000 WORDS (ON EVERY NODE).
 DISTRIBUTED MEMDDI=           0 MILLION WORDS IN AGGREGATE,
 MEMDDI DISTRIBUTED OVER   1 PROCESSORS IS           0 WORDS/PROCESSOR.
 TOTAL MEMORY REQUESTED ON EACH PROCESSOR=   300000000 WORDS.
 TIMLIM=      525600.00 MINUTES, OR     365.0 DAYS.
 PARALL= F  BALTYP=  DLB     KDIAG=    0  COREFL= F
 MXSEQ2=     300 MXSEQ3=     150  mem10=         0

          ----------------
          PROPERTIES INPUT
          ----------------

     MOMENTS            FIELD           POTENTIAL          DENSITY
 IEMOM =       1   IEFLD =       0   IEPOT =       0   IEDEN =       0
 WHERE =COMASS     WHERE =NUCLEI     WHERE =NUCLEI     WHERE =NUCLEI  
 OUTPUT=BOTH       OUTPUT=BOTH       OUTPUT=BOTH       OUTPUT=BOTH    
 IEMINT=       0   IEFINT=       0                     IEDINT=       0
                                                       MORB  =       0
          EXTRAPOLATION IN EFFECT
          SOSCF IN EFFECT
 ORBITAL PRINTING OPTION: NPREO=     1   100     2     1

     -------------------------------
     INTEGRAL TRANSFORMATION OPTIONS
     -------------------------------
     NWORD  =            0
     CUTOFF = 1.0E-09     MPTRAN =       0
     DIRTRF =       F     AOINTS =DUP     

          ----------------------
          INTEGRAL INPUT OPTIONS
          ----------------------
 NOPK  =       1 NORDER=       0 SCHWRZ=       F

     ------------------------------------------
     THE POINT GROUP IS C1 , NAXIS= 1, ORDER= 1
     ------------------------------------------

     DIMENSIONS OF THE SYMMETRY SUBSPACES ARE
 A   =  100

 ..... DONE SETTING UP THE RUN .....
 STEP CPU TIME =     0.02 TOTAL CPU TIME =        0.0 (    0.0 MIN)
 TOTAL WALL CLOCK TIME=        1.6 SECONDS, CPU UTILIZATION IS   1.27%

          ********************
          1 ELECTRON INTEGRALS
          ********************
   ==========================================
   ===    start embedding calculations    ===
   ==========================================
 Chen: embpot =  3
 Chen: embedding potential is skipped   
 Chen: to read integrals from files     
   ==========================================
   skip embint1 and embint2, read from file: 
        embint1.inte   embint2.inte          
   ==========================================
   ==========================================
      chen: embint1 is set = 0 manually      
   ==========================================
   ==========================================
              reading embint2                
   ==========================================
 ...... END OF ONE-ELECTRON INTEGRALS ......
 STEP CPU TIME =     0.01 TOTAL CPU TIME =        0.0 (    0.0 MIN)
 TOTAL WALL CLOCK TIME=        1.7 SECONDS, CPU UTILIZATION IS   1.81%

          -------------
          GUESS OPTIONS
          -------------
          GUESS =HUCKEL            NORB  =       0          NORDER=       0
          MIX   =       F          PRTMO =       F          PUNMO =       F
          TOLZ  = 1.0E-08          TOLE  = 1.0E-05
          SYMDEN=       F          PURIFY=       F

 INITIAL GUESS ORBITALS GENERATED BY HUCKEL   ROUTINE.
 HUCKEL GUESS REQUIRES     75640 WORDS.

 SYMMETRIES FOR INITIAL GUESS ORBITALS FOLLOW.   BOTH SET(S).
     8 ORBITALS ARE OCCUPIED (    2 CORE ORBITALS).
     3=A        4=A        5=A        6=A        7=A        8=A        9=A   
    10=A       11=A       12=A       13=A       14=A       15=A       16=A   
    17=A       18=A   
 ...... END OF INITIAL ORBITAL SELECTION ......
 STEP CPU TIME =     0.01 TOTAL CPU TIME =        0.0 (    0.0 MIN)
 TOTAL WALL CLOCK TIME=        1.8 SECONDS, CPU UTILIZATION IS   2.22%

                    ----------------------
                    AO INTEGRAL TECHNOLOGY
                    ----------------------
     S,P,L SHELL ROTATED AXIS INTEGRALS, REPROGRAMMED BY
        KAZUYA ISHIMURA (IMS) AND JOSE SIERRA (SYNSTAR).
     S,P,D,L SHELL ROTATED AXIS INTEGRALS PROGRAMMED BY
        KAZUYA ISHIMURA (INSTITUTE FOR MOLECULAR SCIENCE).
     S,P,D,F,G SHELL TO TOTAL QUARTET ANGULAR MOMENTUM SUM 5,
        ERIC PROGRAM BY GRAHAM FLETCHER (ELORET AND NASA ADVANCED
        SUPERCOMPUTING DIVISION, AMES RESEARCH CENTER).
     S,P,D,F,G,L SHELL GENERAL RYS QUADRATURE PROGRAMMED BY
        MICHEL DUPUIS (PACIFIC NORTHWEST NATIONAL LABORATORY).

          --------------------
          2 ELECTRON INTEGRALS
          --------------------

 THE -PK- OPTION IS OFF, THE INTEGRALS ARE NOT IN SUPERMATRIX FORM.
 STORING   15000 INTEGRALS/RECORD ON DISK, USING 12 BYTES/INTEGRAL.
 TWO ELECTRON INTEGRAL EVALUATION REQUIRES   99628 WORDS OF MEMORY.
 II,JST,KST,LST =  1  1  1  1 NREC =         1 INTLOC =    1
 II,JST,KST,LST =  2  1  1  1 NREC =         1 INTLOC =    2
 II,JST,KST,LST =  3  1  1  1 NREC =         1 INTLOC =    7
 II,JST,KST,LST =  4  1  1  1 NREC =         1 INTLOC =   22
 II,JST,KST,LST =  5  1  1  1 NREC =         1 INTLOC =   56
 II,JST,KST,LST =  6  1  1  1 NREC =         1 INTLOC =  125
 II,JST,KST,LST =  7  1  1  1 NREC =         1 INTLOC =  329
 II,JST,KST,LST =  8  1  1  1 NREC =         1 INTLOC =  776
 II,JST,KST,LST =  9  1  1  1 NREC =         1 INTLOC = 2864
 II,JST,KST,LST = 10  1  1  1 NREC =         1 INTLOC = 7967
 II,JST,KST,LST = 11  1  1  1 NREC =         2 INTLOC =12194
 II,JST,KST,LST = 12  1  1  1 NREC =         4 INTLOC = 5540
 II,JST,KST,LST = 13  1  1  1 NREC =         6 INTLOC =  885
 II,JST,KST,LST = 14  1  1  1 NREC =         7 INTLOC =13340
 II,JST,KST,LST = 15  1  1  1 NREC =         9 INTLOC =13019
 II,JST,KST,LST = 16  1  1  1 NREC =        16 INTLOC =11303
 II,JST,KST,LST = 17  1  1  1 NREC =        25 INTLOC = 3347
 II,JST,KST,LST = 18  1  1  1 NREC =        35 INTLOC = 7094
 II,JST,KST,LST = 19  1  1  1 NREC =        62 INTLOC = 1502
 II,JST,KST,LST = 20  1  1  1 NREC =        98 INTLOC = 3785
 II,JST,KST,LST = 21  1  1  1 NREC =       184 INTLOC =  712
 II,JST,KST,LST = 22  1  1  1 NREC =       195 INTLOC =14703
 II,JST,KST,LST = 23  1  1  1 NREC =       208 INTLOC = 6363
 II,JST,KST,LST = 24  1  1  1 NREC =       221 INTLOC = 5908
 II,JST,KST,LST = 25  1  1  1 NREC =       263 INTLOC = 8879
 II,JST,KST,LST = 26  1  1  1 NREC =       311 INTLOC =  399
 II,JST,KST,LST = 27  1  1  1 NREC =       423 INTLOC = 2103
 II,JST,KST,LST = 28  1  1  1 NREC =       444 INTLOC = 5174
 II,JST,KST,LST = 29  1  1  1 NREC =       466 INTLOC = 4467
 II,JST,KST,LST = 30  1  1  1 NREC =       489 INTLOC =  246
 II,JST,KST,LST = 31  1  1  1 NREC =       561 INTLOC =13732
 II,JST,KST,LST = 32  1  1  1 NREC =       642 INTLOC = 5025
 TOTAL NUMBER OF NONZERO TWO-ELECTRON INTEGRALS =            12398016
        827 INTEGRAL RECORDS WERE STORED ON DISK FILE  8.
  ...... END OF TWO-ELECTRON INTEGRALS .....
 STEP CPU TIME =     1.12 TOTAL CPU TIME =        1.2 (    0.0 MIN)
 TOTAL WALL CLOCK TIME=        2.9 SECONDS, CPU UTILIZATION IS  39.46%

          --------------------------
                 RHF SCF CALCULATION
          --------------------------

     NUCLEAR ENERGY =        31.1957658394
     MAXIT =  200     NPUNCH=    2
     EXTRAP=T  DAMP=F  SHIFT=F  RSTRCT=F  DIIS=F  DEM=F  SOSCF=T
     DENSITY MATRIX CONV=  1.00E-05
     SOSCF WILL OPTIMIZE     736 ORBITAL ROTATIONS, SOGTOL=   0.250
     MEMORY REQUIRED FOR RHF ITERS=    104344 WORDS.

 ITER EX DEM     TOTAL ENERGY        E CHANGE  DENSITY CHANGE     ORB. GRAD
   1  0  0     -113.1579950989  -113.1579950989 838.990474114   0.000000000
   2  1  0     -144.2672453386   -31.1092502397  37.647089594   0.501365682
   3  2  0     -146.3505641617    -2.0833188230  34.554557319   0.496075766
          ---------------START SECOND ORDER SCF---------------
   4  3  0     -147.2539075242    -0.9033433625  11.504335735   0.074327191
   5  4  0     -147.2952551216    -0.0413475974   1.788371420   0.094818996
   6  5  0     -147.3375716668    -0.0423165452   2.863127951   0.018138191
   7  6  0     -147.3406847716    -0.0031131047   0.813389897   0.007873460
   8  7  0     -147.3413466225    -0.0006618509   0.183829466   0.003077016
   9  8  0     -147.3413946767    -0.0000480542   0.067166943   0.001457084
  10  9  0     -147.3414120032    -0.0000173265   0.004300678   0.000321765
  11 10  0     -147.3414125518    -0.0000005487   0.002607919   0.000052117
  12 11  0     -147.3414125820    -0.0000000302   0.000378987   0.000016913
  13 12  0     -147.3414125824    -0.0000000004   0.000178838   0.000006071
  14 13  0     -147.3414125836    -0.0000000012   0.000091371   0.000002130
  15 14  0     -147.3414125830     0.0000000006   0.000009582   0.000000274
  16 15  0     -147.3414125839    -0.0000000009   0.000001688   0.000000101

          -----------------
          DENSITY CONVERGED
          -----------------
     TIME TO FORM FOCK OPERATORS=       2.6 SECONDS (       0.2 SEC/ITER)
     TIME TO SOLVE SCF EQUATIONS=       0.0 SECONDS (       0.0 SEC/ITER)

 FINAL RHF ENERGY IS     -147.3414125839 AFTER  16 ITERATIONS

          ------------
          EIGENVECTORS
          ------------

                      1          2          3          4          5
                  -19.1100   -14.7910    -4.3626    -3.4904    -2.8942
                     A          A          A          A          A   
    1  C  1  S   -0.010058   2.598897   4.982526   3.014488   0.117638
    2  C  1  S   -0.022379   5.752829  15.950791  10.997831   0.334399
    3  C  1  S   -0.008302  -0.363668  -2.144551  -1.149648  -0.030427
    4  C  1  S    0.015800  -0.797853  -1.480584  -1.785281  -0.055990
    5  C  1  X   -0.035983   0.735092  -0.028779  -2.170759   0.008532
    6  C  1  Y   -0.009374   1.434139  -0.611530  -1.693048  -0.068703
    7  C  1  Z   -0.035334  -0.684073   1.070525  -2.210910   0.056181
    8  C  1  X    0.066259  -1.372196   0.777173   3.085491   0.230084
    9  C  1  Y    0.024533  -3.343444   0.689186   2.223268   0.012619
   10  C  1  Z    0.052564   1.216789   0.741560   2.041983   0.325475
   11  C  1  X    0.027041  -0.264318  -0.125732   0.688151   0.067297
   12  C  1  Y    0.048839  -0.503641   0.046929   0.505079   0.037359
   13  C  1  Z    0.013864   0.170383  -0.526399   0.795810   0.066839
   14  C  1 XX   -0.003082  -0.197245  -0.201870  -0.689292  -0.004880
   15  C  1 YY   -0.008300  -0.189752  -0.084347  -0.406289   0.012081
   16  C  1 ZZ    0.007848  -0.136655  -0.385096  -0.034665   0.011347
   17  C  1 XY    0.001129   0.063757   0.066000   0.109661   0.027062
   18  C  1 XZ    0.006302   0.103117   0.038175   0.371921  -0.011221
   19  C  1 YZ    0.003529  -0.032835  -0.112433  -0.021158   0.023253
   20  C  1 XX    0.005674   0.350298   1.861488   0.980442   0.063022
   21  C  1 YY   -0.038709   1.453905   3.632222   1.675832   0.253486
   22  C  1 ZZ   -0.044323   0.930884   2.297164   0.833088   0.060648
   23  C  1 XY    0.039769   0.251877   1.735372   1.309706   0.156854
   24  C  1 XZ    0.000294   0.439157   1.906749   1.092172   0.004391
   25  C  1 YZ    0.072361  -0.950137  -1.081517  -0.293857  -0.038891
   26  C  1 XXX  -0.024543   0.381866   0.031341  -0.343459   0.007170
   27  C  1 YYY   0.008310   0.635782  -0.401551  -0.441660  -0.013989
   28  C  1 ZZZ  -0.021370  -0.257792  -0.257129  -0.422272  -0.065461
   29  C  1 XXY  -0.010631   0.436368   0.164144   0.013837   0.000771
   30  C  1 XXZ  -0.013913  -0.145759  -0.132144   0.025401  -0.022361
   31  C  1 YYX   0.001484   0.148383   0.200908  -0.072750   0.034176
   32  C  1 YYZ  -0.003327   0.112535   0.281855   0.260135   0.028086
   33  C  1 ZZX  -0.014399   0.079071  -0.110965  -0.519132  -0.055173
   34  C  1 ZZY  -0.024997   0.306117  -0.162803  -0.186194  -0.109029
   35  C  1 XYZ  -0.021049   0.055496   0.271484   0.201723  -0.038816
   36  O  2  S    0.855884  -0.067530  -0.102228  -0.030627   0.333078
   37  O  2  S   -0.321428  -0.250354  -0.333141   0.098743   1.459968
   38  O  2  S    0.199547   0.210993   0.671729   0.208592  -0.348935
   39  O  2  S    0.097856  -2.665938  -8.379010  -3.771709  -0.347612
   40  O  2  X   -0.094925   0.267359   0.408740   0.392456  -0.581060
   41  O  2  Y   -0.440186  -0.055539  -0.181420  -0.213315   0.962376
   42  O  2  Z    0.049082   0.414394   0.960553   0.725425  -0.759379
   43  O  2  X    0.013583  -0.778255  -1.237294  -1.235188   0.349140
   44  O  2  Y    0.403790   0.145712   0.352236   0.456148  -0.421165
   45  O  2  Z    0.035007  -1.137957  -2.430006  -1.740539   0.780960
   46  O  2  X    0.049748  -0.642686  -1.816799  -0.887880   0.196073
   47  O  2  Y    0.114329   0.143370   0.636398   0.384552  -0.353795
   48  O  2  Z   -0.017085  -0.911277  -2.755409  -1.352929   0.221788
   49  O  2 XX   -0.008674   0.046971   0.094006  -0.035950  -0.033751
   50  O  2 YY    0.038495   0.049849   0.099754   0.009101   0.122146
   51  O  2 ZZ    0.043813   0.067814   0.150951   0.012971  -0.217196
   52  O  2 XY   -0.007217   0.006941   0.012701   0.014066  -0.253817
   53  O  2 XZ    0.010596   0.038138   0.080774   0.028748   0.122375
   54  O  2 YZ   -0.014208  -0.019646  -0.060518  -0.020860  -0.034654
   55  O  2 XX    0.083560   0.204806   0.797545   0.106526  -0.070971
   56  O  2 YY    0.049020   0.269766   0.871426   0.268046  -0.178223
   57  O  2 ZZ    0.050231   0.050332   0.394216  -0.013881  -0.016888
   58  O  2 XY    0.023548  -0.019010  -0.094323   0.032019  -0.102483
   59  O  2 XZ   -0.001875  -0.280147  -0.589472  -0.544651   0.052997
   60  O  2 YZ    0.039338   0.090960   0.232819   0.243740   0.076552
   61  O  2 XXX   0.038184   0.220099   0.311294   0.316436  -0.007325
   62  O  2 YYY  -0.047388  -0.042903  -0.076741  -0.118072   0.163383
   63  O  2 ZZZ  -0.027698   0.306109   0.619354   0.442751  -0.201683
   64  O  2 XXY  -0.006934  -0.022444  -0.070737  -0.030127   0.153911
   65  O  2 XXZ  -0.021893   0.114999   0.274763   0.108944  -0.139092
   66  O  2 YYX   0.009311   0.104427   0.153097   0.149429  -0.267655
   67  O  2 YYZ  -0.022272   0.143663   0.271380   0.160104  -0.060318
   68  O  2 ZZX   0.015170   0.056289   0.106543   0.072582  -0.014549
   69  O  2 ZZY  -0.007147  -0.007324  -0.035794  -0.022430  -0.038677
   70  O  2 XYZ   0.010485   0.008834  -0.013194   0.075338   0.175982
   71  H  3  S    0.000764   0.819010   2.792192   1.285308   0.058113
   72  H  3  S    0.083222  -4.452081  -9.415099  -4.361440  -0.461446
   73  H  3  S    0.018693  -0.470167  -1.877924  -0.958108  -0.048036
   74  H  3  X   -0.004311  -0.000449  -0.024139  -0.010878  -0.011281
   75  H  3  Y   -0.000985   0.029175   0.031459  -0.028701  -0.017046
   76  H  3  Z   -0.003553  -0.016562   0.010542   0.037585  -0.000716
   77  H  3  X    0.012813  -0.100062  -0.180867  -0.049376  -0.011343
   78  H  3  Y    0.026534  -1.539832  -3.089632  -1.467283  -0.184907
   79  H  3  Z   -0.006872   0.956142   1.997244   0.951576   0.096990
   80  H  3 XX   -0.000538   0.174865   0.529716   0.244740   0.018197
   81  H  3 YY   -0.000210   0.015350   0.037927  -0.011149  -0.026225
   82  H  3 ZZ    0.000701   0.112585   0.320172   0.166080   0.022853
   83  H  3 XY   -0.002820  -0.017235  -0.086166  -0.021364  -0.013666
   84  H  3 XZ   -0.002363  -0.009112  -0.062801  -0.031472   0.007406
   85  H  3 YZ   -0.001038   0.113265   0.363188   0.191257   0.010973
   86  H  4  S   -0.017026   0.744662   2.064365   0.707870   0.074067
   87  H  4  S   -0.019923  -1.842898  -8.953792  -5.615564  -0.463058
   88  H  4  S   -0.012519  -0.557775  -1.439070  -0.588352  -0.088289
   89  H  4  X   -0.000090  -0.001419  -0.026420   0.026052   0.001990
   90  H  4  Y   -0.003861   0.005108  -0.025050   0.016922  -0.004251
   91  H  4  Z    0.004513  -0.002753  -0.030593  -0.004857   0.016527
   92  H  4  X    0.001459   0.495620   2.474130   1.594179   0.129347
   93  H  4  Y    0.002478   0.487266   2.458732   1.658267   0.112145
   94  H  4  Z   -0.005360   0.268169   1.305239   0.890219   0.092530
   95  H  4 XX   -0.005103   0.070399   0.193202   0.049279   0.007877
   96  H  4 YY    0.001551   0.038926   0.129642   0.040470   0.009219
   97  H  4 ZZ   -0.003883   0.117306   0.310799   0.164330  -0.002150
   98  H  4 XY    0.004467  -0.124636  -0.290465  -0.140676  -0.001125
   99  H  4 XZ    0.001783  -0.089568  -0.200208  -0.083500  -0.024375
  100  H  4 YZ   -0.003717  -0.031839  -0.100182  -0.058537  -0.023055

                      6          7          8          9         10
                   -2.2681    -2.1514    -1.8421    -1.2690    -0.6931
                     A          A          A          A          A   
    1  C  1  S   -0.283281   1.069385   0.204743  -0.029053   0.437692
    2  C  1  S   -1.047609   3.495300   0.848049   0.034851   1.546968
    3  C  1  S    0.202151  -0.629144  -0.084008   0.029704  -0.120378
    4  C  1  S   -0.032181  -0.372099  -0.663511  -0.423229  -0.465353
    5  C  1  X    0.146140  -0.596615  -0.038202   0.452974  -0.882190
    6  C  1  Y    0.779231   1.231660   0.399722  -1.828130  -0.279071
    7  C  1  Z   -0.021055  -1.116397   0.031012   1.364126  -1.076838
    8  C  1  X   -0.074919   1.049377  -0.568775  -1.382843   2.092313
    9  C  1  Y   -0.666349   0.116443  -0.347946   2.233845   0.551783
   10  C  1  Z   -0.273613   0.717331  -0.068145  -1.912293   2.699686
   11  C  1  X   -0.048374   0.125958  -0.023233  -0.090620   0.401876
   12  C  1  Y   -0.262446  -0.355026  -0.227912   0.833102   0.073574
   13  C  1  Z    0.013409   0.316403   0.050332  -0.576509   0.705711
   14  C  1 XX    0.144235   0.085389   0.107997  -0.116932  -0.027206
   15  C  1 YY   -0.024385  -0.355709  -0.051858   0.130776  -0.053887
   16  C  1 ZZ    0.095752  -0.038575   0.039436  -0.119619  -0.118820
   17  C  1 XY   -0.057777  -0.230131  -0.165579   0.079575  -0.037272
   18  C  1 XZ   -0.031680   0.094014  -0.043703  -0.018628  -0.047039
   19  C  1 YZ    0.019671   0.063782  -0.089244   0.010564   0.048852
   20  C  1 XX   -0.011239   0.483985   0.239677   0.174468   0.137386
   21  C  1 YY    0.133229   0.698487   0.267788  -0.382075   1.205762
   22  C  1 ZZ    0.129596   0.343118   0.111852  -0.057440  -0.465512
   23  C  1 XY    0.038292   0.211574  -0.512363  -0.556904   0.218433
   24  C  1 XZ   -0.060569   0.491749   0.145178   0.178522  -0.403512
   25  C  1 YZ    0.113192  -0.133479  -0.247989   0.121286  -0.028780
   26  C  1 XXX  -0.023854  -0.397514  -0.059883   0.363765  -0.386352
   27  C  1 YYY   0.102692  -0.249759  -0.155162  -0.352224  -0.182780
   28  C  1 ZZZ   0.048728  -0.167509  -0.048497   0.331366  -0.365886
   29  C  1 XXY   0.016890   0.121595   0.238043   0.004978   0.174319
   30  C  1 XXZ   0.068605  -0.018975  -0.050420   0.153811  -0.037928
   31  C  1 YYX   0.047823  -0.023843  -0.134931   0.065652  -0.225418
   32  C  1 YYZ  -0.001660  -0.037762   0.046525   0.165134  -0.086367
   33  C  1 ZZX  -0.009280  -0.181181   0.099643   0.200330   0.012825
   34  C  1 ZZY   0.081967  -0.058570  -0.081204  -0.183124  -0.119923
   35  C  1 XYZ  -0.058283   0.015054  -0.120086  -0.049513  -0.037308
   36  O  2  S    0.409903  -0.091265   0.086543  -0.003476  -0.130871
   37  O  2  S    2.214583  -0.355251   0.616976   0.202416  -1.534312
   38  O  2  S   -0.361129   0.137530  -0.264866  -0.179165   0.244720
   39  O  2  S   -0.362757  -1.576024   0.287546   0.233556   0.932355
   40  O  2  X    0.062203   0.191723   0.216304   0.107183  -0.325829
   41  O  2  Y   -0.550428   0.111374  -0.069218  -0.073474   0.569445
   42  O  2  Z    0.219451   0.572589   0.817504   0.495599  -1.577868
   43  O  2  X    0.029422  -0.603952  -0.489197  -0.230852   0.921564
   44  O  2  Y    0.078411   0.069553  -0.025591  -0.048845  -0.831737
   45  O  2  Z   -0.061586  -1.135467  -1.272769  -0.802276   1.723849
   46  O  2  X   -0.030912  -0.394370  -0.019122  -0.046395   0.374569
   47  O  2  Y    0.213704   0.049557  -0.032492  -0.073687  -0.322528
   48  O  2  Z   -0.034708  -0.669057  -0.203996  -0.132978   0.469300
   49  O  2 XX   -0.344977   0.031428  -0.175075  -0.110914   0.472037
   50  O  2 YY   -0.257361   0.050006  -0.105428  -0.070154   0.218698
   51  O  2 ZZ   -0.343876   0.109616  -0.047271  -0.032334   0.136872
   52  O  2 XY    0.027773   0.000679   0.014494   0.004282  -0.014770
   53  O  2 XZ   -0.037674   0.031659   0.010934   0.005111   0.004511
   54  O  2 YZ    0.025563  -0.013624  -0.000502  -0.004293   0.012396
   55  O  2 XX   -0.375069   0.129650  -0.302882  -0.249724   0.455561
   56  O  2 YY   -0.251403   0.135387  -0.358429  -0.266980   0.469243
   57  O  2 ZZ    0.039948  -0.203791  -0.556936  -0.365606   0.659940
   58  O  2 XY   -0.157668   0.054146   0.016228  -0.001897  -0.202239
   59  O  2 XZ   -0.224682  -0.165487  -0.083479  -0.015639   0.158790
   60  O  2 YZ    0.284412  -0.039072  -0.049988  -0.085924  -0.119234
   61  O  2 XXX  -0.021087   0.181271   0.160341   0.048966  -0.230691
   62  O  2 YYY  -0.060417   0.015183   0.039252   0.036651   0.090637
   63  O  2 ZZZ  -0.098776   0.307102   0.340552   0.210185  -0.548497
   64  O  2 XXY   0.007770  -0.002663   0.025372   0.023430   0.030223
   65  O  2 XXZ  -0.103529   0.142965   0.148393   0.086081  -0.084123
   66  O  2 YYX   0.160835   0.025785   0.065007   0.024094  -0.111426
   67  O  2 YYZ  -0.194828   0.198623   0.145426   0.066488  -0.152047
   68  O  2 ZZX   0.072704   0.016876   0.047583   0.024143  -0.064933
   69  O  2 ZZY  -0.079000   0.017940  -0.007022  -0.015322  -0.001900
   70  O  2 XYZ   0.184507  -0.045037   0.000878   0.000290  -0.037998
   71  H  3  S   -0.333009  -0.818968   1.602548  -2.191614   0.062958
   72  H  3  S    0.313374  -0.776537  -1.279190   2.448981  -1.285993
   73  H  3  S    0.217524   0.156356  -0.640486   0.988649  -0.148282
   74  H  3  X    0.026216   0.100458  -0.143801   0.119309  -0.008725
   75  H  3  Y    0.018011   0.010810   0.020662  -0.104693  -0.026135
   76  H  3  Z   -0.071604  -0.217574   0.264287  -0.196554   0.019573
   77  H  3  X    0.011889  -0.130087  -0.199752  -0.060702  -0.086159
   78  H  3  Y    0.137167  -0.368424  -0.194978   0.489107  -0.412583
   79  H  3  Z   -0.012860   0.272358   0.193104  -0.370329   0.428922
   80  H  3 XX   -0.013737   0.057805   0.044562  -0.102934   0.022838
   81  H  3 YY    0.062767   0.144032  -0.073589   0.010676  -0.016280
   82  H  3 ZZ   -0.034702  -0.020009   0.111954  -0.233317  -0.018383
   83  H  3 XY   -0.016955  -0.083539   0.002336  -0.086104  -0.025257
   84  H  3 XZ    0.017919   0.050565  -0.072516   0.138304   0.016516
   85  H  3 YZ   -0.048661  -0.073076   0.112994  -0.056649   0.039692
   86  H  4  S   -0.095454   0.419191   0.417497   0.130979   0.298071
   87  H  4  S    0.311833  -2.057189   0.036871   0.297935  -1.783331
   88  H  4  S    0.095470  -0.327233  -0.070236  -0.070531  -0.227856
   89  H  4  X   -0.000786  -0.026050  -0.047114  -0.002176  -0.035561
   90  H  4  Y   -0.000484  -0.018627  -0.039175   0.009447   0.005812
   91  H  4  Z    0.006703  -0.014802  -0.010485   0.014902  -0.003745
   92  H  4  X   -0.068411   0.545041  -0.104515  -0.013419   0.767399
   93  H  4  Y   -0.125801   0.565298  -0.061979  -0.046504   0.440936
   94  H  4  Z   -0.049871   0.318281  -0.078319  -0.051708   0.387874
   95  H  4 XX   -0.009099   0.088920   0.072448  -0.034817   0.001744
   96  H  4 YY   -0.001484   0.034855   0.024022  -0.024465  -0.008143
   97  H  4 ZZ   -0.029012   0.063360   0.038674   0.010712   0.036921
   98  H  4 XY    0.013265  -0.018884   0.052470  -0.005056  -0.020320
   99  H  4 XZ    0.002956  -0.031544   0.018536  -0.006531  -0.021479
  100  H  4 YZ    0.005811  -0.020535  -0.000502  -0.019042  -0.032966

                     11         12         13         14         15
                   -0.3617    -0.2672    -0.1533    -0.1266    -0.0174
                     A          A          A          A          A   
    1  C  1  S   -0.168754  -0.046848   0.188049   0.029584   0.084227
    2  C  1  S   -0.788343  -0.174868   0.868933   0.155531   0.200076
    3  C  1  S    0.060586   0.038999   0.081462   0.122187  -0.268077
    4  C  1  S    0.182773  -0.024610  -0.698847  -0.752174   1.533372
    5  C  1  X   -0.500924   0.232236   0.679005   0.214561  -0.232330
    6  C  1  Y   -0.303630  -0.827607  -0.179507  -0.005172   0.183335
    7  C  1  Z    0.019847   0.033029   0.642770  -0.281226  -0.328720
    8  C  1  X    0.289848  -0.309823  -1.308677   0.484525   0.446776
    9  C  1  Y   -0.288808   1.706546   0.360502  -0.191985  -0.121651
   10  C  1  Z    0.027411   0.065816  -1.556706   0.408546   0.435285
   11  C  1  X   -0.021209   0.284727  -0.184744  -0.604720   0.620043
   12  C  1  Y    0.309896   0.271305   0.283391   0.595951  -0.175580
   13  C  1  Z   -0.099028   0.162597  -0.331545  -0.247769   0.378895
   14  C  1 XX   -0.006418   0.027127   0.091241  -0.031859  -0.030961
   15  C  1 YY    0.251663   0.079273  -0.048917  -0.030312   0.052762
   16  C  1 ZZ    0.116601   0.065625   0.063978  -0.011192   0.053122
   17  C  1 XY   -0.011100   0.090341   0.101739   0.175464   0.005803
   18  C  1 XZ    0.092761   0.048120  -0.012225  -0.049815   0.054804
   19  C  1 YZ    0.093869   0.033367  -0.026666   0.067388   0.059938
   20  C  1 XX    0.093216  -0.186825   0.442725  -0.039718  -0.060319
   21  C  1 YY   -0.639785  -0.246886   0.390156   0.356135  -0.496502
   22  C  1 ZZ    0.001201  -0.210314   0.535664   0.233486  -0.279209
   23  C  1 XY   -0.299775  -0.052269  -0.390519  -0.110562   0.294597
   24  C  1 XZ   -0.124272  -0.114476   0.532817   0.153648  -0.065567
   25  C  1 YZ   -0.374117   0.180396  -0.197352  -0.290431  -0.043075
   26  C  1 XXX  -0.063833   0.210448   0.115092   0.025754  -0.066590
   27  C  1 YYY   0.051640  -0.275217  -0.088236  -0.035102   0.194146
   28  C  1 ZZZ  -0.199986  -0.077004   0.323528  -0.039189  -0.129684
   29  C  1 XXY   0.185220  -0.089508  -0.002453  -0.153362   0.130728
   30  C  1 XXZ   0.086581   0.031308  -0.004305  -0.085053  -0.024731
   31  C  1 YYX   0.108060   0.247534   0.150010  -0.056186  -0.054918
   32  C  1 YYZ  -0.012056  -0.038294   0.246114  -0.051936  -0.021019
   33  C  1 ZZX  -0.094582   0.070480   0.027344  -0.046712  -0.069039
   34  C  1 ZZY   0.100414  -0.136784  -0.044000   0.037203   0.049818
   35  C  1 XYZ   0.161733   0.076653   0.002590  -0.007102   0.030455
   36  O  2  S    0.084000   0.157306  -0.069838   0.025011   0.051530
   37  O  2  S    0.315044   0.722481  -0.083792   0.031188   0.075914
   38  O  2  S   -0.098205  -0.151212  -0.032948  -0.120401  -0.003396
   39  O  2  S   -0.133932   0.297286  -1.167222   0.194688  -0.121985
   40  O  2  X    0.053256   0.046382   0.042657   0.046041   0.023241
   41  O  2  Y   -0.130584  -0.115430   0.050496  -0.033872  -0.104522
   42  O  2  Z    0.024061   0.187664   0.587086  -0.141828  -0.123097
   43  O  2  X   -0.130998  -0.057351  -0.285220  -0.015914   0.007314
   44  O  2  Y    0.258392   0.134753  -0.052828  -0.200739   0.291363
   45  O  2  Z   -0.062795  -0.087102  -1.063053  -0.005450   0.093114
   46  O  2  X   -0.049166  -0.015953   0.208596  -0.239053  -0.432076
   47  O  2  Y   -0.054078   0.029346  -0.037770   0.002891   0.116356
   48  O  2  Z   -0.070059   0.003972  -0.851647   0.360971  -0.041882
   49  O  2 XX   -0.052237  -0.121699   0.006859  -0.023829  -0.009373
   50  O  2 YY   -0.059071  -0.082763   0.050438  -0.038169  -0.053959
   51  O  2 ZZ   -0.076618  -0.090110   0.052201  -0.083347  -0.038615
   52  O  2 XY   -0.008455   0.001738   0.015399   0.004624  -0.016733
   53  O  2 XZ   -0.006257  -0.004062  -0.042979   0.013638   0.028302
   54  O  2 YZ   -0.008326   0.006937   0.038198  -0.007102  -0.034373
   55  O  2 XX   -0.135445  -0.135819  -0.128508  -0.092057   0.069924
   56  O  2 YY   -0.065074  -0.161543   0.095467  -0.267702  -0.056565
   57  O  2 ZZ    0.104715  -0.017224  -0.548758   0.096320   0.236522
   58  O  2 XY    0.039190   0.054776  -0.074011   0.035805   0.102977
   59  O  2 XZ   -0.082603  -0.017372   0.211894  -0.087006  -0.194253
   60  O  2 YZ   -0.050685  -0.038106   0.103878  -0.058513  -0.025138
   61  O  2 XXX   0.002762   0.035285   0.097874   0.012464  -0.019449
   62  O  2 YYY  -0.153039  -0.066359   0.063734   0.036843  -0.129247
   63  O  2 ZZZ  -0.084297   0.016295   0.250292  -0.011395  -0.092656
   64  O  2 XXY  -0.059905  -0.017905   0.081759   0.011236  -0.082932
   65  O  2 XXZ  -0.027809  -0.010574   0.057786   0.049885   0.019923
   66  O  2 YYX   0.036305   0.027064   0.003888   0.017058   0.015031
   67  O  2 YYZ   0.044215   0.036377   0.103159  -0.006246   0.018683
   68  O  2 ZZX  -0.024260   0.005802   0.124309  -0.023702  -0.086663
   69  O  2 ZZY  -0.102004  -0.041424   0.082187   0.005350  -0.086307
   70  O  2 XYZ   0.006227   0.008567  -0.005497  -0.002626   0.011730
   71  H  3  S   -0.215268  -0.324228  -0.436647   0.284954  -0.460524
   72  H  3  S    0.359591   0.920111   0.243674  -0.458189   0.284739
   73  H  3  S    0.127379   0.059108   0.388200   0.107319   0.325385
   74  H  3  X    0.143537   0.137869   0.047999   0.022776  -0.088132
   75  H  3  Y    0.072847   0.074310  -0.003428  -0.028829   0.024402
   76  H  3  Z    0.169511   0.134469   0.046230  -0.024212   0.020256
   77  H  3  X    0.054821   0.050128  -0.138570  -0.317540   0.490953
   78  H  3  Y   -0.013052   0.289451   0.052756  -0.063060  -0.154981
   79  H  3  Z    0.073522  -0.008410   0.019957   0.161147  -0.315879
   80  H  3 XX   -0.183252  -0.152897  -0.071750  -0.032607   0.088289
   81  H  3 YY    0.079602   0.102010   0.021824   0.004802  -0.074881
   82  H  3 ZZ   -0.050766  -0.054226  -0.047927   0.032335  -0.012432
   83  H  3 XY    0.018806  -0.002855  -0.039928   0.022005  -0.032895
   84  H  3 XZ   -0.159072  -0.152475  -0.029949   0.036618  -0.071239
   85  H  3 YZ    0.101290   0.059142   0.024368  -0.017908  -0.005016
   86  H  4  S   -0.901057  -0.279010   2.183321   2.275510   2.773257
   87  H  4  S    1.154175   0.281836  -1.197488  -1.288301  -2.178026
   88  H  4  S    0.108970   0.261631  -0.887111  -0.553592  -1.602588
   89  H  4  X    0.129210  -0.059814   0.127024   0.059650   0.111529
   90  H  4  Y    0.078623   0.055801  -0.055407  -0.067076  -0.048234
   91  H  4  Z   -0.007029   0.073492   0.104081   0.085542   0.133450
   92  H  4  X   -0.797409   0.806482  -0.365788  -0.020902  -0.168874
   93  H  4  Y   -0.150967   0.196272   0.013421   0.119154   0.386631
   94  H  4  Z   -0.067526   0.072650  -0.097972   0.010900   0.096566
   95  H  4 XX   -0.088830   0.004746  -0.235760  -0.131569  -0.151839
   96  H  4 YY   -0.010907  -0.173216   0.027460  -0.021566  -0.024197
   97  H  4 ZZ    0.037459  -0.160597   0.052840   0.007084   0.080168
   98  H  4 XY   -0.108275   0.020877  -0.085015  -0.049740  -0.100034
   99  H  4 XZ    0.006193  -0.070440   0.032061   0.032569   0.035885
  100  H  4 YZ    0.002562  -0.050679  -0.028065  -0.042814  -0.081725

                     16         17         18         19         20
                    0.0239     0.0818     0.1926     0.2565     0.3296
                     A          A          A          A          A   
    1  C  1  S   -0.140249   0.038383   0.025823  -0.006492  -0.226222
    2  C  1  S   -0.574852   0.117115  -0.067513   0.226536  -0.781228
    3  C  1  S   -0.129839   0.126547   0.345354  -0.809841  -0.080918
    4  C  1  S    1.517542  -0.611020  -1.977822   4.383058   1.706710
    5  C  1  X    0.442039   0.723276   0.037703   0.669714   0.124373
    6  C  1  Y   -0.411235  -0.442641  -0.390407  -0.463214  -0.136064
    7  C  1  Z   -0.009036   0.082070  -0.255151   0.034481  -0.229898
    8  C  1  X   -0.500759  -0.873933   0.232250  -0.513722  -0.049913
    9  C  1  Y    0.359506   0.947380   0.900670   0.376409   0.462105
   10  C  1  Z   -0.675375  -0.345665   0.539458   0.526526  -0.071262
   11  C  1  X   -0.541816   0.400685   1.319339   1.386173  -0.123169
   12  C  1  Y    0.095031   1.309861   1.139517  -1.045772  -0.368130
   13  C  1  Z   -0.710581  -0.042533   1.505450   1.606758   0.246232
   14  C  1 XX   -0.011804   0.013256   0.039530  -0.175920   0.038334
   15  C  1 YY   -0.031357  -0.115330   0.027824  -0.199773   0.013387
   16  C  1 ZZ   -0.058325   0.065541   0.002281  -0.137097   0.043857
   17  C  1 XY    0.179314   0.106784   0.017244   0.109793   0.057212
   18  C  1 XZ    0.038147  -0.041831   0.009395  -0.072243   0.009555
   19  C  1 YZ    0.014680   0.045497   0.096684  -0.078106  -0.000323
   20  C  1 XX   -0.531031   0.160050   0.446354  -1.604923  -0.090715
   21  C  1 YY   -0.150441   0.772534   0.944558  -0.256640  -0.578971
   22  C  1 ZZ   -0.067301   0.051747  -0.114715  -1.211042  -0.053867
   23  C  1 XY   -0.332675   0.130517   0.293107   0.065619  -0.208181
   24  C  1 XZ    0.084525   0.140610  -0.219479  -0.334278   0.024798
   25  C  1 YZ   -0.073972  -0.233429  -0.031096  -0.232036  -0.091708
   26  C  1 XXX   0.101806   0.260885   0.070038   0.196000  -0.109888
   27  C  1 YYY   0.052481  -0.192731  -0.171475  -0.351532   0.043331
   28  C  1 ZZZ   0.204925   0.118475   0.083596   0.039438  -0.006386
   29  C  1 XXY  -0.058618  -0.150510  -0.125860  -0.173785   0.019312
   30  C  1 XXZ   0.113013  -0.046491   0.015302   0.003107  -0.083365
   31  C  1 YYX   0.099714   0.162406   0.016367   0.125874  -0.021716
   32  C  1 YYZ   0.076534   0.078664  -0.045620   0.111492   0.028972
   33  C  1 ZZX  -0.010708   0.089315   0.139331   0.122235  -0.057312
   34  C  1 ZZY   0.054035  -0.127510  -0.083131  -0.191826  -0.069182
   35  C  1 XYZ   0.120243   0.013927  -0.016596  -0.017013   0.001146
   36  O  2  S   -0.120522   0.118238   0.084317   0.002476   0.058454
   37  O  2  S   -0.418553   0.339430   0.752771  -0.403130   0.559241
   38  O  2  S    0.050053  -0.228079  -0.125738  -0.430999  -0.036315
   39  O  2  S   -0.458956   0.056900   2.323567   3.749809  -0.209123
   40  O  2  X   -0.098650   0.155124  -0.240841   0.212627  -0.127455
   41  O  2  Y    0.135648   0.065275  -0.264540   0.356335  -0.306746
   42  O  2  Z   -0.263326   0.403929  -0.360597  -0.357017  -0.042699
   43  O  2  X    0.048332  -0.093727   0.494741  -0.185552   0.125165
   44  O  2  Y   -0.696951  -0.118686  -0.393601  -0.416223  -0.091710
   45  O  2  Z   -0.132706  -0.506502   0.375054   0.528895  -0.318895
   46  O  2  X   -0.203994  -0.213516   0.223543   0.196880  -0.111279
   47  O  2  Y    0.005824   0.073240  -0.181179  -0.025026   0.279524
   48  O  2  Z    0.540002  -0.357957   0.716884   1.196398   0.185809
   49  O  2 XX    0.031590  -0.038207  -0.171955   0.073405  -0.127578
   50  O  2 YY    0.047972  -0.054340  -0.057858  -0.015283  -0.057733
   51  O  2 ZZ    0.001814  -0.059464  -0.152078  -0.008829  -0.144565
   52  O  2 XY    0.017936   0.011516   0.002217   0.014713  -0.005495
   53  O  2 XZ    0.004999  -0.006664   0.009778   0.009106  -0.003164
   54  O  2 YZ   -0.000565   0.016327  -0.003655   0.039745  -0.019422
   55  O  2 XX   -0.081651  -0.104835  -0.205910  -0.303866  -0.138331
   56  O  2 YY    0.099958  -0.335962  -0.179762  -0.506706  -0.108084
   57  O  2 ZZ   -0.366270   0.090156  -0.497073  -0.072198  -0.286306
   58  O  2 XY   -0.208716   0.153287  -0.258997   0.120642  -0.053668
   59  O  2 XZ   -0.094960   0.047862  -0.000895  -0.052633   0.000509
   60  O  2 YZ   -0.047567  -0.012314  -0.030148  -0.043062   0.024489
   61  O  2 XXX  -0.069426   0.090758  -0.112820   0.127041  -0.043817
   62  O  2 YYY   0.239641   0.010486   0.130693   0.088575   0.016885
   63  O  2 ZZZ   0.148676  -0.009473   0.080833  -0.106850   0.076662
   64  O  2 XXY   0.138068  -0.002496   0.109931  -0.006914   0.087718
   65  O  2 XXZ   0.031630   0.070881  -0.023098   0.020952   0.038147
   66  O  2 YYX  -0.037751   0.050490  -0.084601   0.080452  -0.044282
   67  O  2 YYZ  -0.048013   0.116204  -0.122845  -0.037483  -0.002127
   68  O  2 ZZX   0.006540   0.000945  -0.016304   0.056760  -0.022758
   69  O  2 ZZY   0.125545  -0.009297   0.087684   0.005092   0.047640
   70  O  2 XYZ  -0.025448  -0.007479   0.004773   0.019312  -0.001809
   71  H  3  S   -0.127878  -0.571852   0.168665   0.727779  -1.480941
   72  H  3  S   -0.079798   0.461800  -0.488514  -2.073296   3.107304
   73  H  3  S    0.371177   1.517825   1.126058  -2.316727  -1.898021
   74  H  3  X    0.065606  -0.110151  -0.036133   0.107712  -0.107496
   75  H  3  Y    0.060136  -0.065821  -0.020595  -0.032465   0.061484
   76  H  3  Z    0.091795  -0.035075  -0.021793   0.039380   0.072550
   77  H  3  X    0.217797   0.125906  -0.044572  -0.473018   0.368006
   78  H  3  Y    0.061029   0.080114  -0.041023  -0.493517  -0.176327
   79  H  3  Z    0.242551  -0.243524  -0.049836   0.515777  -0.562329
   80  H  3 XX   -0.033149   0.047674   0.077281   0.025976  -0.130008
   81  H  3 YY    0.094610  -0.110906   0.002686   0.047093  -0.317620
   82  H  3 ZZ   -0.011919  -0.049662   0.031539   0.043350  -0.194071
   83  H  3 XY    0.002071  -0.017042   0.003562   0.014900  -0.040753
   84  H  3 XZ   -0.180044   0.035576  -0.001170   0.050962  -0.036942
   85  H  3 YZ    0.054994  -0.058293  -0.033562   0.081608  -0.021588
   86  H  4  S   -0.946529  -1.496223   0.506646   0.028931  -0.299573
   87  H  4  S    0.801906  -0.221259  -1.341377   0.133504   0.288912
   88  H  4  S    0.457861   0.033978  -1.468531  -1.660079   0.518339
   89  H  4  X    0.029396  -0.038385  -0.033761   0.010097   0.012981
   90  H  4  Y    0.056647   0.021717  -0.008376   0.045615  -0.010120
   91  H  4  Z   -0.038453  -0.106731   0.008513   0.023120  -0.003523
   92  H  4  X   -0.001709   0.283979   0.489089   0.119593  -0.156775
   93  H  4  Y   -0.196211  -0.022769   0.176284  -0.290994   0.030145
   94  H  4  Z    0.013355   0.287532   0.252525   0.057739  -0.058574
   95  H  4 XX   -0.067283   0.114215   0.002608  -0.084172   0.007536
   96  H  4 YY    0.018162   0.119697   0.022455  -0.025326   0.032401
   97  H  4 ZZ   -0.007166   0.003577   0.020979  -0.002832  -0.007907
   98  H  4 XY   -0.052753   0.020889  -0.000568  -0.007833  -0.014236
   99  H  4 XZ   -0.044324  -0.074847  -0.036260  -0.034703  -0.022092
  100  H  4 YZ    0.028241   0.027055  -0.003225   0.012655  -0.008667

                     21         22         23         24         25
                    0.3770     0.4450     0.5170     0.5730     0.6414
                     A          A          A          A          A   
    1  C  1  S   -0.222343   0.082517  -0.622733  -0.438264   0.033432
    2  C  1  S   -0.977255   0.039195  -2.515024  -1.719863   0.287885
    3  C  1  S   -0.502710   0.009596   0.304608  -0.311755  -1.390468
    4  C  1  S    2.151495  -0.554702   0.682567   2.527482   6.343960
    5  C  1  X   -0.684944  -1.140115   0.282065   1.015562  -0.725932
    6  C  1  Y    0.675765   0.746132  -0.775910  -1.075806   0.537614
    7  C  1  Z   -0.406055  -0.470014  -0.176287   0.365668  -0.184261
    8  C  1  X    0.105964   1.810406  -0.102223  -1.818900   0.869786
    9  C  1  Y   -1.664354  -1.551676   1.669063   0.814964  -0.807460
   10  C  1  Z    1.214031   2.069766   0.173511  -1.457739   0.628072
   11  C  1  X    1.754712  -0.118712   0.731712  -1.312282   0.207770
   12  C  1  Y    0.666388  -0.578503   2.221074  -1.908323   0.237842
   13  C  1  Z    0.119948   0.498069  -0.783385   0.942776   0.025757
   14  C  1 XX   -0.160105  -0.013609   0.089539  -0.073066  -0.248318
   15  C  1 YY    0.031416   0.073318   0.213002   0.098138  -0.203575
   16  C  1 ZZ   -0.115995   0.078937  -0.052654  -0.149876  -0.142332
   17  C  1 XY   -0.162874  -0.127470   0.106531   0.184932  -0.104356
   18  C  1 XZ    0.074337   0.045654   0.099572   0.071276   0.047471
   19  C  1 YZ    0.068526  -0.019907   0.117599   0.166457  -0.047758
   20  C  1 XX   -0.743885  -0.072972   0.143110  -0.729787  -1.723513
   21  C  1 YY   -1.307619   0.286090  -0.780381  -1.439113  -2.556990
   22  C  1 ZZ   -0.977873  -0.052761  -0.351242  -0.848730  -1.741034
   23  C  1 XY    0.031227   0.528344   0.008108  -0.809110   0.064444
   24  C  1 XZ    0.069576  -0.098853  -0.292708  -0.354495  -0.109353
   25  C  1 YZ    0.033129  -0.209001   1.116874  -0.348664  -0.103226
   26  C  1 XXX   0.028832  -0.278824   0.227474   0.325687  -0.375854
   27  C  1 YYY   0.382127   0.373686   0.050711  -0.226843   0.149250
   28  C  1 ZZZ  -0.325732  -0.548951  -0.015096   0.438767  -0.308450
   29  C  1 XXY   0.177548   0.133163  -0.079767  -0.116458   0.059078
   30  C  1 XXZ  -0.033723  -0.151539   0.149229   0.203741  -0.213564
   31  C  1 YYX  -0.003129  -0.108567   0.085892   0.161343  -0.034759
   32  C  1 YYZ  -0.207411  -0.262642  -0.155285   0.135870  -0.091097
   33  C  1 ZZX   0.017519  -0.197841   0.150950   0.238065  -0.225548
   34  C  1 ZZY   0.234240   0.203391   0.040554   0.014925  -0.029331
   35  C  1 XYZ   0.047179   0.058614   0.051773   0.021097  -0.062136
   36  O  2  S   -0.050596  -0.167262   0.047888   0.100505   0.268708
   37  O  2  S   -0.187540  -1.504158   0.069203   0.342613   1.415577
   38  O  2  S   -0.048791   0.034103   0.009236  -0.221432  -0.077910
   39  O  2  S    1.482542   1.293949   0.544007   0.671167  -1.195499
   40  O  2  X   -0.027844   0.282310   0.162762   0.130291  -0.235943
   41  O  2  Y   -0.007842   0.969904   0.135716   0.091422  -0.464700
   42  O  2  Z   -0.204553  -0.382704   0.262986   0.616034  -0.058314
   43  O  2  X    0.009596  -0.241454  -0.240993  -0.151247   0.336756
   44  O  2  Y    0.040603  -0.612176   0.189747   0.123494   0.264332
   45  O  2  Z    0.207791   0.553129   0.283686  -0.657304  -0.524707
   46  O  2  X    0.229812   0.591036   0.348804   0.635250   0.248278
   47  O  2  Y   -0.272501  -0.213127  -0.303735   0.104100   0.566607
   48  O  2  Z    0.827269   0.765981   0.327400  -0.113879   0.443884
   49  O  2 XX    0.003959   0.388237  -0.002148  -0.041421  -0.165838
   50  O  2 YY    0.016171   0.246798  -0.002249  -0.025275  -0.049290
   51  O  2 ZZ   -0.001765   0.288338   0.067529   0.005233  -0.241086
   52  O  2 XY   -0.014019  -0.005718  -0.002829  -0.001767  -0.015984
   53  O  2 XZ    0.004342   0.012667   0.000392  -0.021089  -0.022772
   54  O  2 YZ   -0.007458   0.097604  -0.009062   0.013115   0.021758
   55  O  2 XX   -0.112887   0.364791  -0.016705  -0.253004  -0.125121
   56  O  2 YY   -0.062185   0.444346   0.053976  -0.099904  -0.111012
   57  O  2 ZZ   -0.122140   0.395241   0.264608  -0.205591  -0.313071
   58  O  2 XY   -0.062978   0.048195   0.001271  -0.033545   0.101234
   59  O  2 XZ   -0.099091  -0.347022  -0.012669   0.094730   0.103999
   60  O  2 YZ    0.008446   0.160254  -0.007876   0.054927   0.206756
   61  O  2 XXX  -0.027150   0.146784   0.046878   0.045071  -0.012237
   62  O  2 YYY  -0.021177   0.155350  -0.058465  -0.075543  -0.094460
   63  O  2 ZZZ  -0.020416  -0.055392  -0.083542   0.089751   0.141207
   64  O  2 XXY  -0.024740  -0.103465  -0.097208  -0.070630   0.092246
   65  O  2 XXZ  -0.043372  -0.050927  -0.083512   0.015733   0.051974
   66  O  2 YYX  -0.010904   0.095677   0.047733   0.029371  -0.068230
   67  O  2 YYZ  -0.050977  -0.042931  -0.002687   0.115508   0.052797
   68  O  2 ZZX  -0.004354   0.143519   0.043180   0.078629   0.032069
   69  O  2 ZZY  -0.026229  -0.028180  -0.075910  -0.057735   0.061384
   70  O  2 XYZ   0.004504   0.053606  -0.016143  -0.007409   0.008651
   71  H  3  S    0.751880  -0.311830  -0.450988   0.890233   0.302799
   72  H  3  S   -0.379809  -0.442043   3.371461  -0.808589   0.015403
   73  H  3  S   -0.103704  -0.217917   1.412754  -2.361319  -0.471617
   74  H  3  X    0.018610  -0.010760  -0.095013  -0.164017  -0.077737
   75  H  3  Y   -0.018757   0.099772   0.001453  -0.093666  -0.079718
   76  H  3  Z   -0.037188   0.024997  -0.025416  -0.072813  -0.078139
   77  H  3  X   -0.438374   0.469644   0.140923  -0.063490   0.032472
   78  H  3  Y    0.018947  -0.484136   0.790642  -0.210507   0.097223
   79  H  3  Z   -0.049932   0.069329  -0.458419  -0.038428  -0.420544
   80  H  3 XX    0.062362  -0.032261   0.024767   0.291534   0.073543
   81  H  3 YY    0.024887  -0.029146  -0.099663  -0.045904  -0.045497
   82  H  3 ZZ    0.076626  -0.070857  -0.044983   0.132887   0.081322
   83  H  3 XY    0.022663  -0.021888   0.028024   0.018458   0.004153
   84  H  3 XZ    0.064924  -0.010973  -0.122641  -0.070647   0.127316
   85  H  3 YZ   -0.021607   0.050912  -0.108101  -0.073583  -0.030556
   86  H  4  S    0.823610   0.057602   0.105883   0.267667  -0.163774
   87  H  4  S   -1.026574  -0.413715   0.039205   1.661560   1.039042
   88  H  4  S   -0.322625   0.336595  -2.165204   1.480802  -1.918125
   89  H  4  X    0.088480  -0.003968  -0.009278   0.056285  -0.043462
   90  H  4  Y    0.000288  -0.025447   0.027403   0.052148   0.016504
   91  H  4  Z    0.005992  -0.000357   0.032175   0.072005   0.024743
   92  H  4  X   -0.763946   0.192155   0.621635  -0.760950   0.000113
   93  H  4  Y   -0.026386   0.314884   0.344436  -0.534151  -0.150535
   94  H  4  Z   -0.229358   0.093219   0.142809  -0.468753  -0.007957
   95  H  4 XX    0.004574   0.042997  -0.096169  -0.083078   0.090595
   96  H  4 YY    0.102859  -0.007255  -0.121591  -0.033865  -0.026727
   97  H  4 ZZ    0.111483  -0.017607  -0.044030   0.021280  -0.046978
   98  H  4 XY   -0.059189  -0.002087  -0.063795  -0.069934   0.063673
   99  H  4 XZ    0.061719  -0.001444  -0.009565   0.012477  -0.034593
  100  H  4 YZ    0.038992  -0.006243  -0.031607   0.008970  -0.017829

                     26         27         28         29         30
                    0.6918     0.7769     0.8735     0.9327     0.9727
                     A          A          A          A          A   
    1  C  1  S    0.766720  -0.403917  -0.248396  -0.201645  -0.400039
    2  C  1  S    3.016202  -1.435354  -0.955293  -0.551269  -1.508753
    3  C  1  S   -0.786995  -0.701399  -0.309475  -0.961985   0.282469
    4  C  1  S    1.623881   3.880580   2.440297   4.615780  -0.281565
    5  C  1  X    0.817162  -0.188564  -0.115844  -0.077507   0.397998
    6  C  1  Y    0.180241   0.362415   0.223460   0.159000  -0.680806
    7  C  1  Z    0.629159   0.159230  -0.463926  -0.333432   0.124398
    8  C  1  X   -0.284983  -0.283773   1.233794  -0.390202  -1.604116
    9  C  1  Y    0.491957  -0.265832  -0.636509  -0.807798   1.318496
   10  C  1  Z   -2.202812  -1.414365   2.316962   0.671496  -0.277602
   11  C  1  X    0.404508   0.505429  -0.041312   0.764815  -0.159644
   12  C  1  Y    1.936023   1.136400  -0.955581  -0.127941   0.563511
   13  C  1  Z    0.246753   0.806434   1.237703   1.151876  -0.071191
   14  C  1 XX   -0.208888  -0.190160  -0.096089  -0.124934  -0.019455
   15  C  1 YY   -0.141220  -0.210539  -0.010493  -0.155648   0.082642
   16  C  1 ZZ   -0.136024  -0.191799  -0.127065  -0.187775   0.004264
   17  C  1 XY    0.131512  -0.084274   0.051664   0.030229  -0.065771
   18  C  1 XZ   -0.134665   0.107077  -0.048652  -0.016627   0.056519
   19  C  1 YZ   -0.125385  -0.002649   0.014349   0.059102   0.116081
   20  C  1 XX    0.944717  -1.341697  -0.453275  -1.740607   0.290407
   21  C  1 YY   -1.366727  -1.386119   0.175139  -1.505907  -0.222387
   22  C  1 ZZ   -0.482883  -0.899761  -1.150353  -1.571542  -0.352125
   23  C  1 XY    0.547902  -0.136229   0.723604  -0.808492  -0.142102
   24  C  1 XZ    0.587117   0.387345  -0.326060   0.076402  -0.214156
   25  C  1 YZ    0.800480   0.441376   0.291951  -1.124808  -0.030569
   26  C  1 XXX   0.039719  -0.074946   0.016741   0.047229   0.304190
   27  C  1 YYY   0.038865   0.203994   0.133798   0.015089  -0.270864
   28  C  1 ZZZ   0.570419   0.158245  -0.291029  -0.140678   0.015456
   29  C  1 XXY   0.206373  -0.069102   0.064441   0.138747  -0.188245
   30  C  1 XXZ   0.143768   0.071179  -0.030043  -0.125153   0.010366
   31  C  1 YYX  -0.045985  -0.038734  -0.063708  -0.016715   0.123292
   32  C  1 YYZ   0.166338   0.096353  -0.133920  -0.109103  -0.144514
   33  C  1 ZZX   0.019257  -0.108428   0.055859   0.033100   0.155145
   34  C  1 ZZY   0.078543   0.151990   0.039246   0.118944  -0.098014
   35  C  1 XYZ   0.009213   0.031925   0.042241   0.036181  -0.009880
   36  O  2  S   -0.112407  -0.271546   0.157339  -0.109273   0.101070
   37  O  2  S   -0.760603  -1.160297   1.155432  -0.322428   0.742940
   38  O  2  S    0.215534  -0.258657   0.031089  -0.301839  -0.379728
   39  O  2  S   -2.116190   2.483468   1.935008   2.801392   1.525755
   40  O  2  X    0.012729   0.133044  -0.041846   0.018370  -0.186703
   41  O  2  Y    0.184435   0.238306  -0.391390  -0.213198  -0.427655
   42  O  2  Z   -0.097285   0.911814  -0.263575   0.189243  -1.105515
   43  O  2  X   -0.016326  -0.259401  -0.307648  -0.083547   0.233073
   44  O  2  Y    0.551653  -0.028552  -0.104581   0.513176   0.337581
   45  O  2  Z   -0.166350  -0.892822   0.643094  -0.149356   1.316523
   46  O  2  X   -0.332646   0.190593   1.766634   0.368605   0.326381
   47  O  2  Y   -0.398252  -0.529093   0.333097  -1.205479  -0.445614
   48  O  2  Z   -0.987615  -0.162464   1.120708   0.312591  -0.332880
   49  O  2 XX    0.192505   0.024656  -0.232010  -0.063958  -0.157504
   50  O  2 YY    0.086302  -0.000327  -0.138681  -0.043458  -0.075328
   51  O  2 ZZ    0.172471   0.140602  -0.219485   0.004753  -0.175694
   52  O  2 XY   -0.029917   0.037724  -0.021006   0.020705  -0.022806
   53  O  2 XZ    0.025977  -0.036402  -0.011345  -0.022293   0.023674
   54  O  2 YZ    0.003501  -0.045779  -0.034429   0.007661   0.089230
   55  O  2 XX    0.492563  -0.695718   0.017933  -0.516073  -0.229514
   56  O  2 YY    0.521231  -0.442069  -0.373724  -0.369824  -0.457023
   57  O  2 ZZ    0.097406  -0.511364   0.361318  -0.714298  -1.171378
   58  O  2 XY    0.052559  -0.165063   0.162152  -0.212387   0.236610
   59  O  2 XZ   -0.205189   0.047702   0.475635   0.038079   0.022661
   60  O  2 YZ    0.124813   0.077250  -0.343879  -0.197881  -0.287533
   61  O  2 XXX   0.021694  -0.113834   0.118394  -0.033235   0.080294
   62  O  2 YYY  -0.126869   0.091049   0.041735  -0.156909  -0.047917
   63  O  2 ZZZ   0.079308   0.010363  -0.094390  -0.036282  -0.095378
   64  O  2 XXY  -0.154146  -0.007289   0.132269  -0.075856   0.081342
   65  O  2 XXZ   0.066067  -0.046428  -0.004720  -0.038334  -0.022999
   66  O  2 YYX   0.007796  -0.035080   0.043249  -0.004913   0.028049
   67  O  2 YYZ   0.009706   0.093321  -0.034890  -0.000674  -0.148003
   68  O  2 ZZX   0.043187  -0.029516  -0.078140  -0.011158  -0.019474
   69  O  2 ZZY  -0.112603   0.040927   0.047030  -0.093618   0.039986
   70  O  2 XYZ   0.037179  -0.052252  -0.010249  -0.020920   0.027215
   71  H  3  S   -0.535471  -1.485676  -0.404468  -0.144091  -1.062880
   72  H  3  S    2.097966   3.275449  -0.515082  -0.433652   2.226803
   73  H  3  S    0.457749  -0.128383  -1.119816  -0.798323   0.147179
   74  H  3  X    0.035014   0.064732   0.127918  -0.053786  -0.090581
   75  H  3  Y    0.021264   0.040243   0.086333  -0.090603  -0.020588
   76  H  3  Z   -0.022804   0.026449   0.086930  -0.018226  -0.066989
   77  H  3  X    0.151248   0.038813   0.238948  -0.282871   0.293718
   78  H  3  Y    0.380624   0.649910  -0.348555  -0.140879   0.196772
   79  H  3  Z   -0.228132  -0.392066   0.466089  -0.095867  -0.002599
   80  H  3 XX   -0.022454  -0.239227  -0.162376   0.040518  -0.025797
   81  H  3 YY    0.000877  -0.084449   0.007222  -0.064470  -0.114099
   82  H  3 ZZ   -0.028946  -0.175556  -0.065533  -0.048660  -0.106885
   83  H  3 XY    0.013447  -0.001537   0.003090  -0.020109   0.033092
   84  H  3 XZ   -0.054917   0.030005  -0.053684   0.054343  -0.099866
   85  H  3 YZ    0.014825   0.018659   0.110192  -0.022356  -0.072104
   86  H  4  S   -0.041886   0.128632  -0.189505  -1.888557   0.213990
   87  H  4  S   -2.284769   0.437103  -0.994584   3.693523   0.610490
   88  H  4  S   -1.470396  -1.368735  -0.148363  -1.311169   0.121210
   89  H  4  X    0.011026  -0.034896   0.031160   0.036535  -0.029184
   90  H  4  Y   -0.015372   0.064496  -0.005122  -0.038817   0.042788
   91  H  4  Z   -0.011168   0.016177  -0.002962  -0.047162   0.022824
   92  H  4  X    0.217652   0.056730   0.409220  -0.627744  -0.186529
   93  H  4  Y    1.138304  -0.765744   0.600052   0.309127  -0.699386
   94  H  4  Z    0.163018  -0.237240   0.192831  -0.400361  -0.009750
   95  H  4 XX    0.182745  -0.050453  -0.029464  -0.050084  -0.004590
   96  H  4 YY   -0.000787   0.006155  -0.019898  -0.063561  -0.029293
   97  H  4 ZZ    0.081374   0.040941  -0.007405  -0.228639  -0.004120
   98  H  4 XY   -0.058584   0.062429  -0.055977  -0.005366   0.059578
   99  H  4 XZ    0.008281   0.022480   0.002965  -0.003746   0.003384
  100  H  4 YZ   -0.125929   0.069423  -0.046297  -0.013762   0.039931

                     31         32         33         34         35
                    1.1283     1.1889     1.3319     1.3570     1.4394
                     A          A          A          A          A   
    1  C  1  S    0.272809  -0.003084   0.804145   0.120181   0.580981
    2  C  1  S    1.101320   0.080804   3.027580   0.468373   2.257472
    3  C  1  S   -0.020566  -0.364542  -0.150954   0.026392  -0.044714
    4  C  1  S   -0.973475   1.405943  -1.574942  -0.566536  -2.345290
    5  C  1  X    0.369386  -0.039851  -1.230264  -0.515986   0.371553
    6  C  1  Y   -1.006685  -0.244375   0.528514   1.013115   0.246944
    7  C  1  Z   -1.556540   0.957178   0.081618   0.381505  -0.152768
    8  C  1  X   -0.349197  -0.266285   2.843508   0.982545  -0.313088
    9  C  1  Y    2.902782   0.935066  -1.669809  -2.019203  -0.847424
   10  C  1  Z    1.376532  -2.544274   1.557648  -0.630627   1.435592
   11  C  1  X   -0.915147  -0.142624  -0.207220   0.173642   0.160927
   12  C  1  Y   -0.240448  -1.289829   0.059840  -1.083282  -1.354448
   13  C  1  Z   -0.608176  -0.607134  -0.480484   1.219277   0.829285
   14  C  1 XX   -0.045877  -0.051580  -0.024868   0.123370  -0.024402
   15  C  1 YY   -0.130285  -0.095081  -0.004892   0.012819   0.024821
   16  C  1 ZZ   -0.111754  -0.212700   0.059483   0.114585  -0.058368
   17  C  1 XY    0.103349  -0.051651  -0.055023  -0.008865   0.061192
   18  C  1 XZ   -0.171138  -0.031641  -0.130763   0.053824  -0.167951
   19  C  1 YZ    0.082830   0.090347  -0.147523  -0.111999  -0.099344
   20  C  1 XX    0.688667  -0.155886   0.079054  -0.355221   0.693181
   21  C  1 YY   -0.048290  -1.067180   1.444048   0.027022   0.275373
   22  C  1 ZZ    0.167532  -0.125758   0.295282   0.098461  -0.056683
   23  C  1 XY   -0.214619   0.011012   0.466394  -0.433213   0.702793
   24  C  1 XZ    0.800686   0.756024   0.084561   0.012733  -0.115220
   25  C  1 YZ   -0.465735   0.658952  -0.675443   0.108796  -0.523052
   26  C  1 XXX  -0.009566  -0.006047  -0.648986  -0.127247   0.297678
   27  C  1 YYY  -0.715954  -0.160220   0.095405   0.662714  -0.320655
   28  C  1 ZZZ  -0.520800   0.331283  -0.202058   0.230607   0.000292
   29  C  1 XXY  -0.181693   0.048961   0.236184   0.324293  -0.022858
   30  C  1 XXZ  -0.397887   0.165785  -0.171123   0.108747  -0.043354
   31  C  1 YYX  -0.139222  -0.103594  -0.136722   0.053328  -0.156914
   32  C  1 YYZ  -0.335862   0.144545   0.080356   0.136900  -0.098904
   33  C  1 ZZX   0.055258  -0.053012  -0.308931  -0.055017   0.069528
   34  C  1 ZZY  -0.195155   0.047238  -0.024779   0.129433  -0.014118
   35  C  1 XYZ  -0.068477  -0.116567   0.097202   0.012726   0.021238
   36  O  2  S    0.049169  -0.145805  -0.016485   0.120187  -0.116993
   37  O  2  S    0.286052  -0.614595  -0.162997   0.604155  -0.446237
   38  O  2  S    0.038069   0.020314   0.194199  -0.602271  -0.657648
   39  O  2  S   -2.279075  -0.848230  -0.700248   3.205682   5.099633
   40  O  2  X    0.134265  -0.101090   0.097864   0.185944  -0.016100
   41  O  2  Y   -0.071835   0.184583   0.020725  -0.105175   0.074396
   42  O  2  Z    0.047521   0.174640   0.065306  -0.737358   0.478953
   43  O  2  X   -0.918615   0.419909  -0.489580  -0.888124   0.260344
   44  O  2  Y    0.090174  -0.558075   0.143411  -0.367153  -0.705977
   45  O  2  Z   -0.473983  -0.752794  -0.164143   1.213652  -0.460166
   46  O  2  X    0.278391  -0.503225   0.351368   0.662968   0.770505
   47  O  2  Y    0.213223   1.222658  -0.513223   0.691688   0.451065
   48  O  2  Z   -0.772271  -0.112059   0.560522  -0.115898   0.659722
   49  O  2 XX   -0.058973   0.092841   0.043706  -0.228137  -0.100281
   50  O  2 YY   -0.026292   0.077450  -0.027760  -0.169634  -0.054478
   51  O  2 ZZ   -0.073346   0.031121   0.030880  -0.207679  -0.059808
   52  O  2 XY   -0.051633  -0.004931   0.016753   0.004557   0.068325
   53  O  2 XZ    0.067097  -0.010039  -0.011532   0.052397  -0.046315
   54  O  2 YZ   -0.051077   0.001867  -0.045903  -0.020822  -0.049067
   55  O  2 XX   -0.128386   0.024634   0.230926  -0.720897  -1.133842
   56  O  2 YY    0.076394  -0.011537   0.150796  -0.900476  -0.970788
   57  O  2 ZZ   -0.196113  -0.010153   0.593558  -0.965561  -1.013086
   58  O  2 XY   -0.175257   0.142464  -0.136363   0.016206  -0.340803
   59  O  2 XZ   -0.559589   0.031506   0.146676  -0.326280   0.440570
   60  O  2 YZ   -0.008629   0.203653  -0.085530  -0.076049   0.171919
   61  O  2 XXX   0.172529  -0.120541   0.096768   0.210937  -0.144827
   62  O  2 YYY  -0.068474   0.195507  -0.089798   0.090366   0.265463
   63  O  2 ZZZ   0.131268   0.098558   0.023113  -0.098842  -0.004629
   64  O  2 XXY  -0.114641   0.126211  -0.050582   0.081862   0.179042
   65  O  2 XXZ   0.057167   0.063678   0.044802  -0.046235  -0.001870
   66  O  2 YYX   0.008301  -0.068850   0.055923   0.063680  -0.092693
   67  O  2 YYZ  -0.006349   0.072063  -0.000402  -0.134841   0.057198
   68  O  2 ZZX   0.146592  -0.046190   0.000473   0.127443   0.003995
   69  O  2 ZZY  -0.116851   0.114432  -0.056272   0.068285   0.171703
   70  O  2 XYZ  -0.043736  -0.002239   0.009989  -0.053317  -0.122433
   71  H  3  S   -0.886831  -3.438682  -0.689601   0.957982   2.019408
   72  H  3  S    1.598993   4.839823  -2.365725  -1.742849  -3.950027
   73  H  3  S    0.454116  -0.159975   0.306058  -0.672415  -1.274708
   74  H  3  X    0.030544  -0.023305  -0.327621  -0.090881  -0.019634
   75  H  3  Y   -0.038080  -0.150124  -0.288306  -0.087310   0.066164
   76  H  3  Z   -0.030221  -0.204277  -0.348393  -0.094211   0.038681
   77  H  3  X   -0.120549  -0.293507   0.194089  -0.366251   0.576112
   78  H  3  Y    0.794531   0.999100  -1.200553  -0.089101  -1.298933
   79  H  3  Z   -0.287965   0.313623   1.402775  -0.080299   0.860030
   80  H  3 XX   -0.183668  -0.206254   0.468788   0.249193   0.219303
   81  H  3 YY    0.001458  -0.154906  -0.093304   0.077578   0.098015
   82  H  3 ZZ   -0.094617  -0.276994  -0.068823   0.117102   0.081382
   83  H  3 XY   -0.007028  -0.025020   0.018542  -0.024481   0.033379
   84  H  3 XZ    0.084472  -0.110283  -0.118451   0.005938  -0.017630
   85  H  3 YZ   -0.006230  -0.092351  -0.125380  -0.080458   0.098049
   86  H  4  S   -0.235756  -0.868689  -0.153675   0.173737   1.570298
   87  H  4  S   -0.079565   1.211008  -1.264384  -0.075992  -2.416033
   88  H  4  S    0.769810   0.600123   0.486680  -0.101787   0.157809
   89  H  4  X   -0.038538   0.021996  -0.003070   0.042240  -0.016845
   90  H  4  Y   -0.009992  -0.044938   0.036793  -0.042681  -0.069830
   91  H  4  Z   -0.083298  -0.031844  -0.023107  -0.008489  -0.070210
   92  H  4  X    0.038500  -0.358512   0.497336   0.106709  -0.006655
   93  H  4  Y    0.074991   0.439817  -0.006875   0.540750   0.740464
   94  H  4  Z    0.389295  -0.236543   0.650054   0.016069   0.381841
   95  H  4 XX    0.110039  -0.044083   0.035613   0.042744   0.414285
   96  H  4 YY   -0.087832  -0.043952  -0.065808   0.071726   0.098274
   97  H  4 ZZ   -0.010591  -0.077705   0.015409   0.038202   0.173614
   98  H  4 XY    0.086396   0.005950   0.012005  -0.040779   0.048587
   99  H  4 XZ   -0.007103   0.046867  -0.037507  -0.028455   0.019778
  100  H  4 YZ   -0.044945  -0.036934  -0.039683  -0.073334  -0.069566

                     36         37         38         39         40
                    1.4412     1.5622     1.6594     1.7719     1.8660
                     A          A          A          A          A   
    1  C  1  S    0.503024   0.685123  -0.126226   0.196892  -0.257219
    2  C  1  S    2.165484   2.654133  -0.138502   0.784279  -1.002773
    3  C  1  S   -1.168619  -1.301252  -0.140791  -0.101331   0.631845
    4  C  1  S    4.056948   2.600855   1.124028  -0.854554  -1.096783
    5  C  1  X   -0.408269   2.040866   1.844882  -0.547603   1.407756
    6  C  1  Y   -0.341317  -1.287931  -0.357849   0.420534  -1.031041
    7  C  1  Z    0.105595   1.317050   1.866504  -1.053429  -0.268616
    8  C  1  X    0.766917  -2.460238  -4.911169  -0.026714  -3.065608
    9  C  1  Y    1.254417   3.637838   0.095208  -2.121294   3.432705
   10  C  1  Z    0.155506  -2.953753  -4.420581   1.874951   0.375371
   11  C  1  X    0.182154   0.085491  -1.194973  -0.156510  -0.124675
   12  C  1  Y   -0.103612   1.564912  -0.665280  -0.709153   0.260919
   13  C  1  Z    0.405965  -0.891493  -0.645694   0.123527  -0.325234
   14  C  1 XX   -0.154664  -0.105314  -0.270780   0.046537  -0.026063
   15  C  1 YY   -0.387080  -0.325362  -0.162164   0.103902  -0.124871
   16  C  1 ZZ    0.015142  -0.386622   0.219313  -0.369063   0.583423
   17  C  1 XY   -0.047498   0.131087  -0.112247   0.148525   0.028843
   18  C  1 XZ   -0.066743  -0.065236   0.134126  -0.197277   0.308607
   19  C  1 YZ   -0.153191   0.071792   0.004626  -0.051145  -0.131703
   20  C  1 XX   -2.326761  -0.987623   0.262339  -0.755922   0.804794
   21  C  1 YY   -0.343815  -2.082884  -1.025796  -0.273238   0.644162
   22  C  1 ZZ   -2.398887  -0.430575   0.631821   0.648372   0.792927
   23  C  1 XY    0.632899  -0.028254  -0.205119   0.058098   0.202298
   24  C  1 XZ   -0.787458   1.137020   0.953112  -0.579420  -0.355527
   25  C  1 YZ    0.152696   0.528842  -0.123859  -0.047850   0.034244
   26  C  1 XXX  -0.057452   0.869130   0.871130  -0.028863   1.070255
   27  C  1 YYY  -0.282857  -0.722841  -0.045564   0.392037  -0.695603
   28  C  1 ZZZ  -0.033700   0.589432   0.731642  -0.454690  -0.274573
   29  C  1 XXY  -0.249954   0.031801  -0.071628   0.125163  -0.630867
   30  C  1 XXZ  -0.058965   0.355114   0.387286  -0.073565  -0.103671
   31  C  1 YYX  -0.237757   0.420230   0.748290  -0.405189   0.793030
   32  C  1 YYZ   0.001810   0.518030   0.401576  -0.318590  -0.097729
   33  C  1 ZZX  -0.016182   0.189416   0.078788   0.078303   0.151194
   34  C  1 ZZY  -0.155031  -0.310825  -0.099990   0.254857  -0.574201
   35  C  1 XYZ  -0.111762  -0.012282   0.147403   0.079292   0.127512
   36  O  2  S    0.230808  -0.184311  -0.367605   0.178732  -0.012754
   37  O  2  S    0.829968  -0.776116  -1.678459   0.831334  -0.236454
[...]
   67  O  2 YYZ   0.614921  -0.135160   0.010807   0.431277  -0.353661
   68  O  2 ZZX  -0.485499   0.008006   0.094990   0.082245   0.052702
   69  O  2 ZZY  -0.312843  -0.308280  -0.246993  -0.079322   0.078106
   70  O  2 XYZ  -0.317204  -0.242898   0.390662   0.071238   0.042691
   71  H  3  S   -0.068249  -0.361062  -2.091373   0.740497  -3.321768
   72  H  3  S    3.088348  -1.052539   3.520156  -2.006131   1.343274
   73  H  3  S    0.199945  -0.112384   0.564668  -0.230658   0.506209
   74  H  3  X    0.083397   0.194213  -0.136370  -0.126680  -0.051598
   75  H  3  Y   -0.089391  -0.051778  -0.665010   0.111855  -0.568333
   76  H  3  Z    0.075953   0.147439   0.275508  -0.195931   0.399672
   77  H  3  X    0.233088   0.191384  -0.131974  -0.166122  -0.099932
   78  H  3  Y    1.264491  -0.332641   0.643952  -0.693507  -0.526469
   79  H  3  Z   -0.489571   0.439825  -0.449131   0.365230   0.353372
   80  H  3 XX   -0.053671   0.094107  -0.319266   0.020138  -0.355855
   81  H  3 YY    0.104443   0.117866  -0.498236   0.011295  -0.392689
   82  H  3 ZZ   -0.184966  -0.155852  -0.166099   0.182882  -0.445058
   83  H  3 XY    0.142807   0.264723  -0.289533  -0.206573  -0.083178
   84  H  3 XZ   -0.127153  -0.083154   0.105567  -0.002830   0.108983
   85  H  3 YZ    0.048962   0.170357   0.084581  -0.093283   0.104948
   86  H  4  S   -1.538028  -0.665847  -1.407841   1.929215  -2.522498
   87  H  4  S    0.470777   1.078484   0.962284  -2.052999   2.007159
   88  H  4  S    0.524026   0.316608   0.485059  -0.795438   0.210383
   89  H  4  X    0.625508  -0.310373   0.336067  -0.332243   0.463035
   90  H  4  Y    0.389958   0.225312   0.182614  -0.575489   0.289000
   91  H  4  Z    0.045241  -0.118227   0.203297  -0.072198   0.267594
   92  H  4  X    0.150423  -0.357525  -0.083548   0.188498   0.102093
   93  H  4  Y    0.178500  -0.118703  -0.034660   0.103596   0.016212
   94  H  4  Z    0.028454  -0.156066  -0.007007   0.075550   0.123386
   95  H  4 XX   -0.584869   0.241150  -0.282600   0.267924  -0.377752
   96  H  4 YY   -0.256158  -0.385744  -0.161170   0.580279  -0.171172
   97  H  4 ZZ   -0.208319   0.061433  -0.146416   0.190102  -0.379430
   98  H  4 XY   -0.133970   0.179760   0.034992   0.129887  -0.094353
   99  H  4 XZ    0.100233   0.281424  -0.058394  -0.088020  -0.094981
  100  H  4 YZ   -0.002359   0.138010  -0.086378   0.062527  -0.172441

                     96         97         98         99        100
                   10.6432    11.7022    11.8347    13.4541    15.1451
                     A          A          A          A          A   
    1  C  1  S    1.623527  -2.149542  -1.791107  -0.743424   0.754103
    2  C  1  S    6.479022  -7.783481  -6.652125  -2.202299   2.282999
    3  C  1  S   -0.723257   1.819606   1.918720   1.514515  -1.438157
    4  C  1  S   -2.286225   2.409657   0.795769  -0.733215  -0.432824
    5  C  1  X   -0.121244   0.079345  -0.299583  -0.294490   0.172290
    6  C  1  Y    0.433503  -0.296099  -0.358097  -0.012501   0.032639
    7  C  1  Z   -0.619325   0.404639  -0.121479  -0.304319   0.177552
    8  C  1  X   -1.306913   3.192291   1.957065   0.785687  -0.485789
    9  C  1  Y   -0.258803  -0.524831   0.144963   0.204200  -0.156065
   10  C  1  Z   -1.324851   3.814530   2.367428   0.487357  -0.525487
   11  C  1  X    0.048774   0.238532   0.404013   0.430513  -0.078971
   12  C  1  Y    0.040462   0.158881   0.039747  -0.086910  -0.105855
   13  C  1  Z    0.063828   0.146040   0.475199   0.610635  -0.021812
   14  C  1 XX   -0.768218   0.462972   0.737445  -0.034969  -0.179535
   15  C  1 YY   -0.952984   0.942099   0.888453   0.181948  -0.209866
   16  C  1 ZZ   -0.378642   0.215931   0.504905  -0.098010  -0.001110
   17  C  1 XY   -0.206627   0.139589   0.079620  -0.057963   0.055228
   18  C  1 XZ    0.261892  -0.745938  -0.378630  -0.432851   0.266325
   19  C  1 YZ   -0.104464   0.201345   0.184383   0.094330  -0.098335
   20  C  1 XX   -0.329871   0.668758   1.332467   0.327275  -0.710748
   21  C  1 YY   -0.755279   2.201833   1.347610   0.685945  -0.983210
   22  C  1 ZZ    0.433809  -0.259030   0.231374   0.485082  -0.267181
   23  C  1 XY   -0.255870   1.075818   0.868219  -0.051795  -0.277064
   24  C  1 XZ    0.628548  -1.163440  -0.270554  -0.259056   0.160028
   25  C  1 YZ   -0.459059   0.361601   0.780660  -0.118360  -0.084002
   26  C  1 XXX   0.212749  -0.296129  -0.462252  -0.262287   0.200849
   27  C  1 YYY   0.210849  -0.025541  -0.033553   0.124397  -0.108592
   28  C  1 ZZZ  -0.623848   0.044016   0.044222   0.151702  -0.316369
   29  C  1 XXY   0.012792  -0.085598  -0.251209  -0.222484   0.167947
   30  C  1 XXZ   0.137700   0.151848  -0.084383   0.297531  -0.116357
   31  C  1 YYX  -0.305192  -0.020448  -0.117228  -0.301323   0.121379
   32  C  1 YYZ  -0.557576   0.089395  -0.128944  -0.452337   0.286364
   33  C  1 ZZX  -0.078913   0.234309   0.159286   0.458143  -0.375993
   34  C  1 ZZY   0.628764  -0.337547  -0.421280  -0.122679   0.104885
   35  C  1 XYZ   0.092939  -0.203898  -0.294149  -0.258114   0.197151
   36  O  2  S    0.885496   0.303306   3.452275   5.771508  -0.762195
   37  O  2  S    3.167903   1.283961  11.319024  20.413301   1.171798
   38  O  2  S   -1.505804   0.807039  -3.776125  -6.013854   2.435871
   39  O  2  S   -1.307240   0.466155  -0.190263  -2.932395  -0.066067
   40  O  2  X    2.223264  -2.139189  -1.053708   0.822179   0.410127
   41  O  2  Y   -0.135395   0.304889  -0.223282  -0.093320   0.574139
   42  O  2  Z    1.863952  -3.139257  -0.876491   0.935010  -0.404144
   43  O  2  X   -5.383977   7.402148   3.044559  -2.510582  -0.374093
   44  O  2  Y    1.837740  -0.553291   1.135435  -0.051546  -0.288961
   45  O  2  Z   -6.353783  10.149035   2.489048  -1.678784   0.698307
   46  O  2  X   -0.831495   0.584390   0.831360   0.082709  -0.018080
   47  O  2  Y   -0.191052  -0.208518   0.104159  -0.148475  -0.175300
   48  O  2  Z   -0.605609   1.104145   0.853055   0.191381   0.277776
   49  O  2 XX   -0.381378   0.184950  -1.584663  -2.803224  -1.488560
   50  O  2 YY   -0.448927   0.102335  -0.980080  -3.075038  -1.420279
   51  O  2 ZZ   -0.506006  -0.451894  -1.407129  -2.941527  -1.784583
   52  O  2 XY    0.724046   0.276488   0.045749  -0.269410   0.001169
   53  O  2 XZ    0.186889   0.407263  -0.683723   0.525673  -0.293890
   54  O  2 YZ   -0.227406  -0.202171  -0.570432   0.241257   0.028619
   55  O  2 XX   -1.875755   1.333897  -1.302747  -3.829346  -0.320275
   56  O  2 YY   -0.992786   0.534595  -2.331988  -3.539694  -0.114491
   57  O  2 ZZ   -1.829593   2.536075  -1.342501  -3.450281  -0.059495
   58  O  2 XY   -0.302930  -0.279044   0.063261   0.001613   0.106204
   59  O  2 XZ   -1.004159   1.082995   1.029555  -0.179693   0.004520
   60  O  2 YZ    0.079233  -0.095101   0.512594  -0.287228   0.000498
   61  O  2 XXX   1.548130  -2.760887  -0.837433   1.297884  -0.202695
   62  O  2 YYY  -0.891058   0.164995  -0.709003   0.024144  -0.095736
   63  O  2 ZZZ   2.445385  -3.033930  -0.502727   1.022419  -0.491758
   64  O  2 XXY  -0.571442  -0.244720  -0.249371  -0.049288   0.169206
   65  O  2 XXZ   0.416135  -1.381742  -0.005052   0.266884  -0.333006
   66  O  2 YYX   0.719260  -1.362826  -0.505320   0.591186  -0.083511
   67  O  2 YYZ   1.143949  -1.861312  -0.399646   0.399802  -0.188688
   68  O  2 ZZX   0.519872  -0.553696  -0.150545   0.588238  -0.105063
   69  O  2 ZZY  -0.552236  -0.042046   0.118896  -0.081101  -0.033359
   70  O  2 XYZ  -0.112903  -0.105520   0.092672  -0.090375   0.155586
   71  H  3  S    0.973293  -0.097195   0.798166   0.972387  -0.917423
   72  H  3  S   -0.566445  -1.551069  -1.121911  -1.011523   1.125245
   73  H  3  S   -0.226797   0.075366  -0.239433  -0.318070   0.222216
   74  H  3  X    0.095858  -0.075069  -0.038843   0.026655   0.016370
   75  H  3  Y    0.280350  -0.075096   0.017886   0.177630  -0.137026
   76  H  3  Z   -0.052127  -0.020185  -0.090137  -0.093850   0.119714
   77  H  3  X    0.036031   0.121703   0.159743  -0.093293  -0.067062
   78  H  3  Y    0.081760  -0.559533  -0.267270  -0.181827   0.137869
   79  H  3  Z   -0.078856   0.543478   0.358061   0.030686  -0.215530
   80  H  3 XX    0.061916   0.017690   0.079175   0.071322  -0.068186
   81  H  3 YY    0.341220  -0.114188   0.001940   0.106542  -0.116320
   82  H  3 ZZ   -0.029379   0.043304   0.081674   0.080077  -0.080921
   83  H  3 XY    0.097111  -0.040233  -0.035053  -0.051385   0.028001
   84  H  3 XZ   -0.129775   0.072771  -0.072549  -0.053575   0.053192
   85  H  3 YZ   -0.016042   0.046232   0.063618  -0.045966   0.020847
   86  H  4  S    0.725831   0.131954   0.493876   1.196634  -0.881749
   87  H  4  S   -0.234722  -2.053293  -1.886444  -1.200792   1.436448
   88  H  4  S   -0.354666  -0.070562  -0.063180  -0.395535   0.289627
   89  H  4  X   -0.154127  -0.026300  -0.069953  -0.175466   0.117925
   90  H  4  Y   -0.046979  -0.025938  -0.130450  -0.172059   0.116948
   91  H  4  Z   -0.062431  -0.042718  -0.027309  -0.058309   0.071096
   92  H  4  X   -0.104495   0.579626   0.357721   0.171785  -0.261240
   93  H  4  Y    0.056430   0.351548   0.429448   0.132745  -0.155500
   94  H  4  Z   -0.034979   0.437347   0.156920   0.092226  -0.222973
   95  H  4 XX    0.201835  -0.020161   0.025246   0.170514  -0.091639
   96  H  4 YY   -0.010281   0.048981   0.054205   0.128795  -0.108503
   97  H  4 ZZ    0.031236   0.042919   0.072378   0.083095  -0.061075
   98  H  4 XY    0.017803  -0.006059   0.010980   0.041861  -0.022675
   99  H  4 XZ   -0.046537   0.043064   0.034243  -0.060791   0.035669
  100  H  4 YZ    0.061392  -0.040938  -0.004731   0.085416  -0.042510
 ...... END OF RHF CALCULATION ......
 STEP CPU TIME =     2.60 TOTAL CPU TIME =        3.8 (    0.1 MIN)
 TOTAL WALL CLOCK TIME=        5.7 SECONDS, CPU UTILIZATION IS  65.96%

     ----------------------------------------------------------------
     PROPERTY VALUES FOR THE RHF   SELF-CONSISTENT FIELD WAVEFUNCTION
     ----------------------------------------------------------------

          -----------------
          ENERGY COMPONENTS
          -----------------

         WAVEFUNCTION NORMALIZATION =       1.0000000000

                ONE ELECTRON ENERGY =    -255.2546742332
                TWO ELECTRON ENERGY =      76.7174958099
           NUCLEAR REPULSION ENERGY =      31.1957658394
                                      ------------------
                       TOTAL ENERGY =    -147.3414125839

 ELECTRON-ELECTRON POTENTIAL ENERGY =      76.7174958099
  NUCLEUS-ELECTRON POTENTIAL ENERGY =    -413.1563596874
   NUCLEUS-NUCLEUS POTENTIAL ENERGY =      31.1957658394
                                      ------------------
             TOTAL POTENTIAL ENERGY =    -305.2430980381
               TOTAL KINETIC ENERGY =     157.9016854541
                 VIRIAL RATIO (V/T) =       1.9331212150

          ---------------------------------------
          MULLIKEN AND LOWDIN POPULATION ANALYSES
          ---------------------------------------

     ATOMIC MULLIKEN POPULATION IN EACH MOLECULAR ORBITAL

                      1          2          3          4          5

                  2.000000   2.000000   2.000000   2.000000   2.000000

    1            -0.018488   4.387528  -6.290268   4.554590  -0.074592
    2             2.017982  -0.858407   3.956723  -2.499089   2.087007
    3             0.001379  -1.031132   1.833662  -0.748784  -0.004094
    4            -0.000873  -0.497989   2.499883   0.693283  -0.008321

                      6          7          8

                  2.000000   2.000000   2.000000

    1             0.149558   0.078244   1.780372
    2             1.884046   0.123106  -0.262000
    3            -0.040603   1.640644   0.278221
    4             0.006999   0.158005   0.203408

               ----- POPULATIONS IN EACH AO -----
                             MULLIKEN      LOWDIN
              1  C  1  S      2.75219     1.67079
              2  C  1  S     -3.92496     0.38930
              3  C  1  S      1.28105     0.55518
              4  C  1  S     -0.72785     0.04434
              5  C  1  X      1.28303     0.36122
              6  C  1  Y      2.75233     0.91872
              7  C  1  Z      3.03044     1.00557
              8  C  1  X     -0.92861     0.06747
              9  C  1  Y     -0.97727     0.15596
             10  C  1  Z     -1.35126     0.10823
             11  C  1  X     -0.12001     0.02945
             12  C  1  Y     -0.32954     0.01359
             13  C  1  Z     -0.35271     0.05210
             14  C  1 XX      0.08653     0.07750
             15  C  1 YY      0.04009     0.09172
             16  C  1 ZZ      0.19944     0.14700
             17  C  1 XY      0.21823     0.18695
             18  C  1 XZ      0.14133     0.06505
             19  C  1 YZ      0.02627     0.01969
             20  C  1 XX      0.10727     0.12856
             21  C  1 YY      0.11846     0.21416
             22  C  1 ZZ      0.00578     0.10668
             23  C  1 XY      0.24306     0.16294
             24  C  1 XZ      0.17868     0.06541
             25  C  1 YZ      0.12166     0.07328
             26  C  1 XXX     0.19327     0.07901
             27  C  1 YYY    -0.12046     0.01287
             28  C  1 ZZZ     0.18216     0.01385
             29  C  1 XXY     0.21788     0.17188
             30  C  1 XXZ    -0.04504     0.01074
             31  C  1 YYX     0.09663     0.06039
             32  C  1 YYZ     0.00750     0.08530
             33  C  1 ZZX     0.15758     0.03575
             34  C  1 ZZY    -0.01274     0.04375
             35  C  1 XYZ     0.01653     0.01389
             36  O  2  S      1.67960     1.65533
             37  O  2  S      4.12157     0.38272
             38  O  2  S     -0.29085     0.32452
             39  O  2  S      0.07699     0.36052
             40  O  2  X      0.44413     0.16487
             41  O  2  Y      1.56189     0.64653
             42  O  2  Z      1.27424     0.31666
             43  O  2  X     -0.41641     0.07617
             44  O  2  Y     -0.54452     0.20886
             45  O  2  Z     -1.96546     0.10334
             46  O  2  X      0.21581     0.04405
             47  O  2  Y     -0.26194     0.02353
             48  O  2  Z      0.24517     0.17222
             49  O  2 XX     -0.22417     0.07919
             50  O  2 YY     -0.06417     0.22405
             51  O  2 ZZ     -0.35317     0.04702
             52  O  2 XY      0.15786     0.15923
             53  O  2 XZ      0.03690     0.05575
             54  O  2 YZ      0.00992     0.02360
             55  O  2 XX     -0.47917     0.03779
             56  O  2 YY     -0.33647     0.08174
             57  O  2 ZZ     -0.45772     0.21058
             58  O  2 XY      0.09540     0.12459
             59  O  2 XZ      0.07558     0.17432
             60  O  2 YZ      0.12438     0.14504
             61  O  2 XXX     0.03197     0.01143
             62  O  2 YYY     0.20336     0.14670
             63  O  2 ZZZ     0.52598     0.11803
             64  O  2 XXY     0.10631     0.09294
             65  O  2 XXZ     0.16051     0.07932
             66  O  2 YYX     0.26881     0.18616
             67  O  2 YYZ     0.22567     0.09245
             68  O  2 ZZX     0.04029     0.07351
             69  O  2 ZZY     0.04440     0.07092
             70  O  2 XYZ     0.11667     0.13199
             71  H  3  S      2.52455     0.43750
             72  H  3  S     -0.75497     0.37281
             73  H  3  S     -0.41267     0.05718
             74  H  3  X      0.06955     0.06263
             75  H  3  Y     -0.00539     0.01502
             76  H  3  Z      0.17580     0.18439
             77  H  3  X      0.04853     0.01678
             78  H  3  Y      0.15809     0.08127
             79  H  3  Z      0.20167     0.04681
             80  H  3 XX      0.00925     0.02931
             81  H  3 YY     -0.18367     0.04436
             82  H  3 ZZ      0.12924     0.13187
             83  H  3 XY      0.00358     0.00885
             84  H  3 XZ      0.01139     0.01816
             85  H  3 YZ     -0.04566     0.02739
             86  H  4  S     -0.09608     0.01240
             87  H  4  S      1.48608     0.18454
             88  H  4  S      0.17317     0.02954
             89  H  4  X      0.00113     0.00099
             90  H  4  Y     -0.00075     0.00104
             91  H  4  Z     -0.00147     0.00024
             92  H  4  X      0.54148     0.04972
             93  H  4  Y      0.74093     0.05745
             94  H  4  Z      0.22493     0.02125
             95  H  4 XX      0.00467     0.00325
             96  H  4 YY     -0.00957     0.00202
             97  H  4 ZZ     -0.02691     0.00080
             98  H  4 XY      0.00556     0.01112
             99  H  4 XZ     -0.00132     0.00382
            100  H  4 YZ      0.01254     0.00353

          ----- MULLIKEN ATOMIC OVERLAP POPULATIONS -----
          (OFF-DIAGONAL ELEMENTS NEED TO BE MULTIPLIED BY 2)

             1           2           3           4

    1 1063.0024252
    2 -325.0024084 183.4955111
    3 -363.1038145  74.3840460 217.4316399
    4 -370.3292579  73.5722184  73.2174223 226.5940119

          TOTAL MULLIKEN AND LOWDIN ATOMIC POPULATIONS
       ATOM         MULL.POP.    CHARGE          LOW.POP.     CHARGE
    1 C             4.566944    1.433056         7.238308   -1.238308
    2 O             6.449367    1.550633         6.845655    1.154345
    3 H             1.929294   -0.929294         1.534332   -0.534332
    4 H             3.054395   -2.054395         0.381705    0.618295

          -------------------------------
          BOND ORDER AND VALENCE ANALYSIS     BOND ORDER THRESHOLD=0.050
          -------------------------------

                   BOND                       BOND                       BOND
  ATOM PAIR DIST  ORDER      ATOM PAIR DIST  ORDER      ATOM PAIR DIST  ORDER
    1   2  1.204 -3.630        1   3  1.121 -2.023        1   4  1.120-10.271
    2   3  2.039  1.054        2   4  2.038  2.436        3   4  1.891  4.730

                       TOTAL       BONDED        FREE
      ATOM            VALENCE     VALENCE     VALENCE
    1 C               -15.924     -15.924      -0.000
    2 O                -0.140      -0.140       0.000
    3 H                 3.761       3.761      -0.000
    4 H                -3.105      -3.105      -0.000

          ---------------------
          ELECTROSTATIC MOMENTS
          ---------------------

 POINT   1           X           Y           Z (BOHR)    CHARGE
                 6.152416   11.943762   15.160524        0.00 (A.U.)
         DX          DY          DZ         /D/  (DEBYE)
     4.270456    5.640719   -2.217117    7.414184
 ...... END OF PROPERTY EVALUATION ......
 STEP CPU TIME =     0.02 TOTAL CPU TIME =        3.8 (    0.1 MIN)
 TOTAL WALL CLOCK TIME=        5.8 SECONDS, CPU UTILIZATION IS  65.62%



* * * * ERROR * * * *
 MEMORY LEAK DETECTED.     15150 WORDS ARE STILL ALLOCATED SOMEWHERE






* * * * ERROR * * * *
 MEMORY LEAK DETECTED.     15150 WORDS ARE STILL ALLOCATED SOMEWHERE



                580000  WORDS OF DYNAMIC MEMORY USED
 EXECUTION OF GAMESS TERMINATED NORMALLY Sun Oct  9 17:51:17 2016
 DDI: 263640 bytes (0.3 MB / 0 MWords) used by master data server.

 ----------------------------------------
 CPU timing information for all processes
 ========================================
 0: 3.319 + 0.471 = 3.791
 ----------------------------------------
 ddikick.x: exited gracefully.
----- accounting info -----
Files used on the master node tiger-r12n8 were:
-rw-r--r-- 1 ckrauter eac      4565 Oct  9 17:51 /tmp/gamess.F05
-rw-r--r-- 1 ckrauter eac 148873232 Oct  9 17:51 /tmp/gamess.F08
-rw-r--r-- 1 ckrauter eac   2159520 Oct  9 17:51 /tmp/gamess.F10
Sun Oct  9 17:51:20 EDT 2016
0.170u 0.056s 0:09.77 2.2%	0+0k 4016+16io 4pf+0w
