----- GAMESS execution script 'rungms' -----
This job is running on host tiger-r12n11
under operating system Linux at Sun Oct 9 17:44:31 EDT 2016
Available scratch disk space (Kbyte units) at beginning of the job is
Filesystem     1K-blocks    Used Available Use% Mounted on
/dev/sda3      426919152 7667232 397558944   2% /scratch
GAMESS temporary binary files will be written to /tmp
GAMESS supplementary output files will be written to /scratch/gpfs/ckrauter/Test_embedding/prog_test/EmbeddingIntegralGenerator/examples/GAMESS/C/C/interface_gamess/tmp
Copying input file gamess.inp to your run's scratch directory...

 Distributed Data Interface kickoff program.
 Initiating 1 compute processes on 1 nodes to run the following command:
 /scratch/gpfs/ckrauter/GAMESS/embedded_recip/gamess/gamess.00.x gamess 

          ******************************************************
          *         GAMESS VERSION =  5 DEC 2014 (R1)          *
          *             FROM IOWA STATE UNIVERSITY             *
          * M.W.SCHMIDT, K.K.BALDRIDGE, J.A.BOATZ, S.T.ELBERT, *
          *   M.S.GORDON, J.H.JENSEN, S.KOSEKI, N.MATSUNAGA,   *
          *          K.A.NGUYEN, S.J.SU, T.L.WINDUS,           *
          *       TOGETHER WITH M.DUPUIS, J.A.MONTGOMERY       *
          *         J.COMPUT.CHEM.  14, 1347-1363(1993)        *
          **************** 64 BIT INTEL VERSION ****************

  SINCE 1993, STUDENTS AND POSTDOCS WORKING AT IOWA STATE UNIVERSITY
  AND ALSO IN THEIR VARIOUS JOBS AFTER LEAVING ISU HAVE MADE IMPORTANT
  CONTRIBUTIONS TO THE CODE:
     IVANA ADAMOVIC, CHRISTINE AIKENS, YURI ALEXEEV, POOJA ARORA,
     ANDREY ASADCHEV, ROB BELL, PRADIPTA BANDYOPADHYAY, JONATHAN BENTZ,
     BRETT BODE, KURT BRORSEN, CALEB CARLIN, GALINA CHABAN, WEI CHEN,
     CHEOL HO CHOI, PAUL DAY, ALBERT DEFUSCO, NUWAN DESILVA, TIM DUDLEY,
     DMITRI FEDOROV, GRAHAM FLETCHER, MARK FREITAG, KURT GLAESEMANN,
     DAN KEMP, GRANT MERRILL, NORIYUKI MINEZAWA, JONATHAN MULLIN,
     TAKESHI NAGATA, SEAN NEDD, HEATHER NETZLOFF, BOSILJKA NJEGIC, RYAN OLSON,
     MIKE PAK, SPENCER PRUITT, LUKE ROSKOP, JIM SHOEMAKER, LYUDMILA SLIPCHENKO,
     TONY SMITH, SAROM SOK, JIE SONG, TETSUYA TAKETSUGU, SIMON WEBB,
     PENG XU, SOOHAENG YOO, FEDERICO ZAHARIEV

  ADDITIONAL CODE HAS BEEN PROVIDED BY COLLABORATORS IN OTHER GROUPS:
     IOWA STATE UNIVERSITY:
          JOE IVANIC, AARON WEST, LAIMUTIS BYTAUTAS, KLAUS RUEDENBERG
     UNIVERSITY OF TOKYO: KIMIHIKO HIRAO, TAKAHITO NAKAJIMA,
          TAKAO TSUNEDA, MUNEAKI KAMIYA, SUSUMU YANAGISAWA,
          KIYOSHI YAGI, MAHITO CHIBA, SEIKEN TOKURA, NAOAKI KAWAKAMI
     UNIVERSITY OF AARHUS: FRANK JENSEN
     UNIVERSITY OF IOWA: VISVALDAS KAIRYS, HUI LI
     NATIONAL INST. OF STANDARDS AND TECHNOLOGY: WALT STEVENS, DAVID GARMER
     UNIVERSITY OF PISA: BENEDETTA MENNUCCI, JACOPO TOMASI
     UNIVERSITY OF MEMPHIS: HENRY KURTZ, PRAKASHAN KORAMBATH
     UNIVERSITY OF ALBERTA: TOBY ZENG, MARIUSZ KLOBUKOWSKI
     UNIVERSITY OF NEW ENGLAND: MARK SPACKMAN
     MIE UNIVERSITY: HIROAKI UMEDA
     NAT. INST. OF ADVANCED INDUSTRIAL SCIENCE AND TECHNOLOGY: KAZUO KITAURA
     MICHIGAN STATE UNIVERSITY:
          KAROL KOWALSKI, MARTA WLOCH, JEFFREY GOUR, JESSE LUTZ,
          WEI LI, PIOTR PIECUCH
     UNIVERSITY OF SILESIA: MONIKA MUSIAL, STANISLAW KUCHARSKI
     FACULTES UNIVERSITAIRES NOTRE-DAME DE LA PAIX:
          OLIVIER QUINET, BENOIT CHAMPAGNE
     UNIVERSITY OF CALIFORNIA - SANTA BARBARA: BERNARD KIRTMAN
     INSTITUTE FOR MOLECULAR SCIENCE:
          KAZUYA ISHIMURA, MICHIO KATOUDA, AND SHIGERU NAGASE
     UNIVERSITY OF NOTRE DAME: ANNA POMOGAEVA, DAN CHIPMAN
     KYUSHU UNIVERSITY:
          HARUYUKI NAKANO,
          FENG LONG GU, JACEK KORCHOWIEC, MARCIN MAKOWSKI, AND YURIKO AOKI,
          HIROTOSHI MORI AND EISAKU MIYOSHI
     PENNSYLVANIA STATE UNIVERSITY:
          TZVETELIN IORDANOV, CHET SWALINA, JONATHAN SKONE,
          SHARON HAMMES-SCHIFFER
     WASEDA UNIVERSITY:
          MASATO KOBAYASHI, TOMOKO AKAMA, TSUGUKI TOUMA,
          TAKESHI YOSHIKAWA, YASUHIRO IKABATA, HIROMI NAKAI
     NANJING UNIVERSITY: SHUHUA LI
     UNIVERSITY OF NEBRASKA:
          PEIFENG SU, DEJUN SI, NANDUN THELLAMUREGE, YALI WANG, HUI LI
     UNIVERSITY OF ZURICH: ROBERTO PEVERATI, KIM BALDRIDGE
     N. COPERNICUS UNIVERSITY AND JACKSON STATE UNIVERSITY:
          MARIA BARYSZ
     UNIVERSITY OF COPENHAGEN: CASPER STEINMANN
     TOKYO INSTITUTE OF TECHNOLOGY: HIROYA NAKATA
     NAGOYA UNIVERSITY: YOSHIO NISHIMOTO, STEPHAN IRLE

 EXECUTION OF GAMESS BEGUN Sun Oct  9 17:44:32 2016

            ECHO OF THE FIRST FEW INPUT CARDS -
 INPUT CARD>##################################################################              
 INPUT CARD>#  Embedded Al12 cluster + H2. Do only embedding integrals.                     
 INPUT CARD>##################################################################              
 INPUT CARD>                                                                                
 INPUT CARD> $contrl units=angs scftyp=rhf coord=unique mult=1  $end                        
 INPUT CARD> $contrl runtyp=energy nosym=1 maxit=200 $end                                   
 INPUT CARD> $SYSTEM MWORDS=300 $END                                                        
 INPUT CARD> $guess  guess=huckel  $end                                                     
 INPUT CARD> $contrl icut=10 $end                                                           
 INPUT CARD>                                                                                
 INPUT CARD>#================================================                               
 INPUT CARD># for Al: neares neighbors: SBKJC Polarized (p,2d) - LFK                        
 INPUT CARD>#         further away: LANL2DZ                                                 
 INPUT CARD># for H: aug-cc-pVTZ                                                            
 INPUT CARD># from https://bse.pnl.gov/bse/portal                                           
 INPUT CARD>#================================================                               
 INPUT CARD>                                                                                
 INPUT CARD> $data                                                                          
 INPUT CARD> Al12+H2                                                                        
 INPUT CARD> C1                                                                             
 INPUT CARD>C  6 4.00 5.00 5.00                                                             
 INPUT CARD>S   10                                                                          
 INPUT CARD>  1   8236.0000000              0.0005310                                       
 INPUT CARD>  2   1235.0000000              0.0041080                                       
 INPUT CARD>  3    280.8000000              0.0210870                                       
 INPUT CARD>  4     79.2700000              0.0818530                                       
 INPUT CARD>  5     25.5900000              0.2348170                                       
 INPUT CARD>  6      8.9970000              0.4344010                                       
 INPUT CARD>  7      3.3190000              0.3461290                                       
 INPUT CARD>  8      0.9059000              0.0393780                                       
 INPUT CARD>  9      0.3643000             -0.0089830                                       
 INPUT CARD> 10      0.1285000              0.0023850                                       
 INPUT CARD>S   10                                                                          
 INPUT CARD>  1   8236.0000000             -0.0001130                                       
 INPUT CARD>  2   1235.0000000             -0.0008780                                       
 INPUT CARD>  3    280.8000000             -0.0045400                                       
 INPUT CARD>  4     79.2700000             -0.0181330                                       
 INPUT CARD>  5     25.5900000             -0.0557600                                       
 INPUT CARD>  6      8.9970000             -0.1268950                                       
 INPUT CARD>  7      3.3190000             -0.1703520                                       
 INPUT CARD>  8      0.9059000              0.1403820                                       
 INPUT CARD>  9      0.3643000              0.5986840                                       
 INPUT CARD> 10      0.1285000              0.3953890                                       
 INPUT CARD>S   1                                                                           
 INPUT CARD>  1      0.9059000              1.0000000                                       
 INPUT CARD>S   1                                                                           
 INPUT CARD>  1      0.1285000              1.0000000                                       
 INPUT CARD>P   5                                                                           
 INPUT CARD>  1     18.7100000              0.0140310                                       
 INPUT CARD>  2      4.1330000              0.0868660                                       
  300000000 WORDS OF MEMORY AVAILABLE


     RUN TITLE
     ---------
  Al12+H2                                                                        

 THE POINT GROUP OF THE MOLECULE IS C1      
 THE ORDER OF THE PRINCIPAL AXIS IS     0

 ATOM      ATOMIC                      COORDINATES (BOHR)
           CHARGE         X                   Y                   Z
 C           6.0     7.5589039509        9.4486299386        9.4486299386

          INTERNUCLEAR DISTANCES (ANGS.)
          ------------------------------

                1 C     

   1 C       0.0000000  

  * ... LESS THAN  3.000


     ATOMIC BASIS SET
     ----------------
 THE CONTRACTED PRIMITIVE FUNCTIONS HAVE BEEN UNNORMALIZED
 THE CONTRACTED BASIS FUNCTIONS ARE NOW NORMALIZED TO UNITY

  SHELL TYPE  PRIMITIVE        EXPONENT          CONTRACTION COEFFICIENT(S)

 C         

      1   S       1          8236.0000000    0.000530999862
      1   S       2          1235.0000000    0.004107998930
      1   S       3           280.8000000    0.021086994508
      1   S       4            79.2700000    0.081852978681
      1   S       5            25.5900000    0.234816938842
      1   S       6             8.9970000    0.434400886860
      1   S       7             3.3190000    0.346128909851
      1   S       8             0.9059000    0.039377989744
      1   S       9             0.3643000   -0.008982997660
      1   S      10             0.1285000    0.002384999379

      2   S      11          8236.0000000   -0.000112999941
      2   S      12          1235.0000000   -0.000877999545
      2   S      13           280.8000000   -0.004539997647
      2   S      14            79.2700000   -0.018132990601
      2   S      15            25.5900000   -0.055759971097
      2   S      16             8.9970000   -0.126894934224
      2   S      17             3.3190000   -0.170351911698
      2   S      18             0.9059000    0.140381927233
      2   S      19             0.3643000    0.598683689671
      2   S      20             0.1285000    0.395388795049

      3   S      21             0.9059000    1.000000000000

      4   S      22             0.1285000    1.000000000000

      5   P      23            18.7100000    0.014030998377
      5   P      24             4.1330000    0.086865989953
      5   P      25             1.2000000    0.290215966432
      5   P      26             0.3827000    0.501007942050
      5   P      27             0.1209000    0.343405960280

      6   P      28             0.3827000    1.000000000000

      7   P      29             0.1209000    1.000000000000

      8   D      30             1.0970000    1.000000000000

      9   D      31             0.3180000    1.000000000000

     10   F      32             0.7610000    1.000000000000

 TOTAL NUMBER OF BASIS SET SHELLS             =   10
 NUMBER OF CARTESIAN GAUSSIAN BASIS FUNCTIONS =   35
 NUMBER OF ELECTRONS                          =    6
 CHARGE OF MOLECULE                           =    0
 SPIN MULTIPLICITY                            =    1
 NUMBER OF OCCUPIED ORBITALS (ALPHA)          =    3
 NUMBER OF OCCUPIED ORBITALS (BETA )          =    3
 TOTAL NUMBER OF ATOMS                        =    1
 THE NUCLEAR REPULSION ENERGY IS        0.0000000000

 THIS MOLECULE IS RECOGNIZED AS BEING LINEAR,
 ORBITAL LZ DEGENERACY TOLERANCE ETOLLZ= 1.00E-06

     $CONTRL OPTIONS
     ---------------
 SCFTYP=RHF          RUNTYP=ENERGY       EXETYP=RUN     
 MPLEVL=       0     CITYP =NONE         CCTYP =NONE         VBTYP =NONE    
 DFTTYP=NONE         TDDFT =NONE    
 MULT  =       1     ICHARG=       0     NZVAR =       0     COORD =UNIQUE  
 PP    =NONE         RELWFN=NONE         LOCAL =NONE         NUMGRD=       F
 ISPHER=      -1     NOSYM =       1     MAXIT =     200     UNITS =ANGS    
 PLTORB=       F     MOLPLT=       F     AIMPAC=       F     FRIEND=        
 NPRINT=       7     IREST =       0     GEOM  =INPUT   
 NORMF =       0     NORMP =       0     ITOL  =      20     ICUT  =      10
 INTTYP=BEST         GRDTYP=BEST         QMTTOL= 1.0E-06

     $SYSTEM OPTIONS
     ---------------
  REPLICATED MEMORY=   300000000 WORDS (ON EVERY NODE).
 DISTRIBUTED MEMDDI=           0 MILLION WORDS IN AGGREGATE,
 MEMDDI DISTRIBUTED OVER   1 PROCESSORS IS           0 WORDS/PROCESSOR.
 TOTAL MEMORY REQUESTED ON EACH PROCESSOR=   300000000 WORDS.
 TIMLIM=      525600.00 MINUTES, OR     365.0 DAYS.
 PARALL= F  BALTYP=  DLB     KDIAG=    0  COREFL= F
 MXSEQ2=     300 MXSEQ3=     150  mem10=         0

          ----------------
          PROPERTIES INPUT
          ----------------

     MOMENTS            FIELD           POTENTIAL          DENSITY
 IEMOM =       1   IEFLD =       0   IEPOT =       0   IEDEN =       0
 WHERE =COMASS     WHERE =NUCLEI     WHERE =NUCLEI     WHERE =NUCLEI  
 OUTPUT=BOTH       OUTPUT=BOTH       OUTPUT=BOTH       OUTPUT=BOTH    
 IEMINT=       0   IEFINT=       0                     IEDINT=       0
                                                       MORB  =       0
          EXTRAPOLATION IN EFFECT
          SOSCF IN EFFECT
 ORBITAL PRINTING OPTION: NPREO=     1    35     2     1

     -------------------------------
     INTEGRAL TRANSFORMATION OPTIONS
     -------------------------------
     NWORD  =            0
     CUTOFF = 1.0E-09     MPTRAN =       0
     DIRTRF =       F     AOINTS =DUP     

          ----------------------
          INTEGRAL INPUT OPTIONS
          ----------------------
 NOPK  =       1 NORDER=       0 SCHWRZ=       F

     ------------------------------------------
     THE POINT GROUP IS C1 , NAXIS= 1, ORDER= 1
     ------------------------------------------

     DIMENSIONS OF THE SYMMETRY SUBSPACES ARE
 A   =   35

 ..... DONE SETTING UP THE RUN .....
 STEP CPU TIME =     0.01 TOTAL CPU TIME =        0.0 (    0.0 MIN)
 TOTAL WALL CLOCK TIME=        0.0 SECONDS, CPU UTILIZATION IS 100.00%

          ********************
          1 ELECTRON INTEGRALS
          ********************
   ==========================================
   ===    start embedding calculations    ===
   ==========================================
 Chen: embpot =  3
 Chen: embedding potential is skipped   
 Chen: to read integrals from files     
   ==========================================
   skip embint1 and embint2, read from file: 
        embint1.inte   embint2.inte          
   ==========================================
   ==========================================
      chen: embint1 is set = 0 manually      
   ==========================================
   ==========================================
              reading embint2                
   ==========================================
 ...... END OF ONE-ELECTRON INTEGRALS ......
 STEP CPU TIME =     0.00 TOTAL CPU TIME =        0.0 (    0.0 MIN)
 TOTAL WALL CLOCK TIME=        0.3 SECONDS, CPU UTILIZATION IS   3.45%

          -------------
          GUESS OPTIONS
          -------------
          GUESS =HUCKEL            NORB  =       0          NORDER=       0
          MIX   =       F          PRTMO =       F          PUNMO =       F
          TOLZ  = 1.0E-08          TOLE  = 1.0E-05
          SYMDEN=       F          PURIFY=       F

 INITIAL GUESS ORBITALS GENERATED BY HUCKEL   ROUTINE.
 HUCKEL GUESS REQUIRES      9991 WORDS.

 SYMMETRIES FOR INITIAL GUESS ORBITALS FOLLOW.   BOTH SET(S).
     3 ORBITALS ARE OCCUPIED (    1 CORE ORBITALS).
     2=A        3=A        4=A        5=A        6=A        7=A        8=A   
     9=A       10=A       11=A       12=A       13=A   
 ...... END OF INITIAL ORBITAL SELECTION ......
 STEP CPU TIME =     0.00 TOTAL CPU TIME =        0.0 (    0.0 MIN)
 TOTAL WALL CLOCK TIME=        0.5 SECONDS, CPU UTILIZATION IS   1.82%

                    ----------------------
                    AO INTEGRAL TECHNOLOGY
                    ----------------------
     S,P,L SHELL ROTATED AXIS INTEGRALS, REPROGRAMMED BY
        KAZUYA ISHIMURA (IMS) AND JOSE SIERRA (SYNSTAR).
     S,P,D,L SHELL ROTATED AXIS INTEGRALS PROGRAMMED BY
        KAZUYA ISHIMURA (INSTITUTE FOR MOLECULAR SCIENCE).
     S,P,D,F,G SHELL TO TOTAL QUARTET ANGULAR MOMENTUM SUM 5,
        ERIC PROGRAM BY GRAHAM FLETCHER (ELORET AND NASA ADVANCED
        SUPERCOMPUTING DIVISION, AMES RESEARCH CENTER).
     S,P,D,F,G,L SHELL GENERAL RYS QUADRATURE PROGRAMMED BY
        MICHEL DUPUIS (PACIFIC NORTHWEST NATIONAL LABORATORY).

          --------------------
          2 ELECTRON INTEGRALS
          --------------------

 THE -PK- OPTION IS OFF, THE INTEGRALS ARE NOT IN SUPERMATRIX FORM.
 STORING   15000 INTEGRALS/RECORD ON DISK, USING 12 BYTES/INTEGRAL.
 TWO ELECTRON INTEGRAL EVALUATION REQUIRES   99155 WORDS OF MEMORY.
 II,JST,KST,LST =  1  1  1  1 NREC =         1 INTLOC =    1
 II,JST,KST,LST =  2  1  1  1 NREC =         1 INTLOC =    2
 II,JST,KST,LST =  3  1  1  1 NREC =         1 INTLOC =    7
 II,JST,KST,LST =  4  1  1  1 NREC =         1 INTLOC =   22
 II,JST,KST,LST =  5  1  1  1 NREC =         1 INTLOC =   56
 II,JST,KST,LST =  6  1  1  1 NREC =         1 INTLOC =  125
 II,JST,KST,LST =  7  1  1  1 NREC =         1 INTLOC =  329
 II,JST,KST,LST =  8  1  1  1 NREC =         1 INTLOC =  776
 II,JST,KST,LST =  9  1  1  1 NREC =         1 INTLOC = 2864
 II,JST,KST,LST = 10  1  1  1 NREC =         1 INTLOC = 7967
 TOTAL NUMBER OF NONZERO TWO-ELECTRON INTEGRALS =               27193
          2 INTEGRAL RECORDS WERE STORED ON DISK FILE  8.
  ...... END OF TWO-ELECTRON INTEGRALS .....
 STEP CPU TIME =     0.04 TOTAL CPU TIME =        0.0 (    0.0 MIN)
 TOTAL WALL CLOCK TIME=        0.6 SECONDS, CPU UTILIZATION IS   7.94%

          --------------------------
                 RHF SCF CALCULATION
          --------------------------

     NUCLEAR ENERGY =         0.0000000000
     MAXIT =  200     NPUNCH=    2
     EXTRAP=T  DAMP=F  SHIFT=F  RSTRCT=F  DIIS=F  DEM=F  SOSCF=T
     DENSITY MATRIX CONV=  1.00E-05
     SOSCF WILL OPTIMIZE      96 ORBITAL ROTATIONS, SOGTOL=   0.250
     MEMORY REQUIRED FOR RHF ITERS=     39449 WORDS.

 ITER EX DEM     TOTAL ENERGY        E CHANGE  DENSITY CHANGE     ORB. GRAD
   1  0  0      -42.7676493172   -42.7676493172   6.576478450   0.000000000
          ---------------START SECOND ORDER SCF---------------
   2  1  0      -49.2792534823    -6.5116041651   0.631328305   0.092098150
   3  2  0      -49.3195051502    -0.0402516679   0.103487577   0.025232987
   4  3  0      -49.3218467592    -0.0023416090   0.021380638   0.005445343
   5  4  0      -49.3220140658    -0.0001673065   0.000943270   0.000667198
   6  5  0      -49.3220164996    -0.0000024338   0.000658335   0.000110135
   7  6  0      -49.3220166062    -0.0000001067   0.000042859   0.000016449
   8  7  0      -49.3220166076    -0.0000000014   0.000019765   0.000002088
   9  8  0      -49.3220166076    -0.0000000000   0.000001689   0.000000260
  10  9  0      -49.3220166076    -0.0000000000   0.000000222   0.000000034

          -----------------
          DENSITY CONVERGED
          -----------------
     TIME TO FORM FOCK OPERATORS=       0.0 SECONDS (       0.0 SEC/ITER)
     TIME TO SOLVE SCF EQUATIONS=       0.0 SECONDS (       0.0 SEC/ITER)

 FINAL RHF ENERGY IS      -49.3220166076 AFTER  10 ITERATIONS

 LZ VALUE ANALYSIS FOR THE MOS
 ----------------------------------------
 MO     1 (    1) HAS LZ(WEIGHT)= 0.00(100.0%) 
 MO     2 (    2) HAS LZ(WEIGHT)= 0.00(100.0%) 
 MO     3 (    3) HAS LZ(WEIGHT)= 0.00(100.0%) 
 MO     4 (    4) HAS LZ(WEIGHT)= 0.00(100.0%) 
 MO     5 (    5) HAS LZ(WEIGHT)= 0.00(100.0%) 
 MO     6 (    6) HAS LZ(WEIGHT)= 0.00(100.0%) 
 MO     7 (    7) HAS LZ(WEIGHT)= 0.00(100.0%) 
 MO     8 (    8) HAS LZ(WEIGHT)= 0.00(100.0%) 
 MO     9 (    9) HAS LZ(WEIGHT)= 0.00(100.0%) 
 MO    10 (   10) HAS LZ(WEIGHT)= 0.00(100.0%) 
 MO    11 (   11) HAS LZ(WEIGHT)= 0.00(100.0%) 
 MO    12 (   12) HAS LZ(WEIGHT)= 0.00(100.0%) 
 MO    13 (   13) HAS LZ(WEIGHT)= 0.00(100.0%) 
 MO    14 (   14) HAS LZ(WEIGHT)= 0.00(100.0%) 
 MO    15 (   15) HAS LZ(WEIGHT)= 0.00(100.0%) 
 MO    16 (   16) HAS LZ(WEIGHT)= 0.00(100.0%) 
 MO    17 (   17) HAS LZ(WEIGHT)= 0.00(100.0%) 
 MO    18 (   18) HAS LZ(WEIGHT)= 0.00(100.0%) 
 MO    19 (   19) HAS LZ(WEIGHT)= 0.00(100.0%) 
 MO    20 (   20) HAS LZ(WEIGHT)= 0.00(100.0%) 
 MO    21 (   21) HAS LZ(WEIGHT)= 0.00(100.0%) 
 MO    22 (   22) HAS LZ(WEIGHT)= 0.00(100.0%) 
 MO    23 (   23) HAS LZ(WEIGHT)= 0.00(100.0%) 
 MO    24 (   24) HAS LZ(WEIGHT)= 0.00(100.0%) 
 MO    25 (   25) HAS LZ(WEIGHT)= 0.00(100.0%) 
 MO    26 (   26) HAS LZ(WEIGHT)= 0.00(100.0%) 
 MO    27 (   27) HAS LZ(WEIGHT)= 0.00(100.0%) 
 MO    28 (   28) HAS LZ(WEIGHT)= 0.00(100.0%) 
 MO    29 (   29) HAS LZ(WEIGHT)= 0.00(100.0%) 
 MO    30 (   30) HAS LZ(WEIGHT)= 0.00(100.0%) 
 MO    31 (   31) HAS LZ(WEIGHT)= 0.00(100.0%) 
 MO    32 (   32) HAS LZ(WEIGHT)= 0.00(100.0%) 
 MO    33 (   33) HAS LZ(WEIGHT)= 0.00(100.0%) 
 MO    34 (   34) HAS LZ(WEIGHT)= 0.00(100.0%) 
 MO    35 (   35) HAS LZ(WEIGHT)= 0.00(100.0%) 

          ------------
          EIGENVECTORS
          ------------

                      1          2          3          4          5
                  -13.6843    -1.8316    -1.4819    -0.5814    -0.1655
                     A          A          A          A          A   
    1  C  1  S    0.948671   0.086825   0.138521   0.021770   0.077971
    2  C  1  S   -0.217345   0.481682   1.463163   0.010001  -0.083124
    3  C  1  S    0.022546  -0.114765  -0.057923  -0.000789  -0.099757
    4  C  1  S    0.038983  -0.077296  -0.556587  -0.064503   0.021192
    5  C  1  X    0.441985   1.669617   0.762892   0.374236  -0.620279
    6  C  1  Y   -0.325314   0.130112   0.363325  -0.173556  -0.292794
    7  C  1  Z   -0.409138  -0.599900  -0.125711   0.221292   0.320557
    8  C  1  X   -0.400036  -0.697947  -0.323175   0.321114   0.795794
    9  C  1  Y    0.317996  -0.181633  -0.284253   0.308674   0.855527
   10  C  1  Z    0.348766   0.084833   0.288197   0.217572  -0.210436
   11  C  1  X   -0.101116  -0.599528  -0.200016  -0.154631   0.156981
   12  C  1  Y    0.068415  -0.001045  -0.062519  -0.014991   0.237667
   13  C  1  Z    0.096691   0.238236   0.021150   0.074450  -0.247280
   14  C  1 XX    0.058430  -0.413185   0.122349  -0.131116  -0.175121
   15  C  1 YY    0.019089  -0.136137  -0.277870  -0.012869   0.054393
   16  C  1 ZZ    0.029424  -0.204534  -0.051282  -0.070908   0.069567
   17  C  1 XY    0.006962  -0.012641  -0.046104   0.013684  -0.051111
   18  C  1 XZ   -0.005702   0.152734  -0.148203   0.085960   0.047700
   19  C  1 YZ   -0.000123  -0.071183  -0.007414   0.130181   0.061048
   20  C  1 XX    0.031763  -0.050855   0.000650   0.055034   0.269510
   21  C  1 YY    0.047761  -0.124805  -0.089276   0.051948   0.308686
   22  C  1 ZZ    0.042490  -0.141270   0.063511   0.174501  -0.419072
   23  C  1 XY   -0.003323   0.024194   0.044154   0.136752   0.201602
   24  C  1 XZ    0.001961  -0.033972  -0.014181   0.193514   0.111993
   25  C  1 YZ    0.000183  -0.000387  -0.008022   0.044138   0.465603
   26  C  1 XXX   0.053934   0.165239   0.107644  -0.014353  -0.186734
   27  C  1 YYY  -0.045450  -0.014362   0.080006  -0.042758  -0.238322
   28  C  1 ZZZ  -0.027705  -0.040124  -0.203376   0.312402  -0.136834
   29  C  1 XXY  -0.022070   0.017801   0.049270  -0.087247  -0.037447
   30  C  1 XXZ  -0.015036  -0.116813  -0.064535   0.017834   0.065391
   31  C  1 YYX   0.015891  -0.107477  -0.087041  -0.058481  -0.035855
   32  C  1 YYZ  -0.016414   0.058035   0.034151   0.022186   0.235276
   33  C  1 ZZX   0.019904   0.049700   0.123536  -0.274357  -0.066695
   34  C  1 ZZY  -0.019849   0.035315   0.173125  -0.271822   0.095409
   35  C  1 XYZ  -0.003117  -0.029890  -0.021641  -0.023752  -0.044730

                      6          7          8          9         10
                   -0.0611     0.0810     0.1269     0.3711     0.4067
                     A          A          A          A          A   
    1  C  1  S   -0.233871   0.209955   0.024580  -0.044089   0.059475
    2  C  1  S   -0.720039   0.291488   0.431873  -0.012205   0.016744
    3  C  1  S    0.090998  -0.655893  -0.376222  -0.240112  -0.239673
    4  C  1  S    1.110413   1.580125   1.563602   1.366621   0.545022
    5  C  1  X   -0.633790  -1.044975   1.170807  -0.262454   0.098348
    6  C  1  Y   -0.690744  -0.216672   0.046500   0.205245  -0.508951
    7  C  1  Z   -0.060148  -0.616923   0.291131  -0.334574  -0.118481
    8  C  1  X    0.641212   1.470417  -1.033927   0.749642  -0.963415
    9  C  1  Y    0.918664   0.709087   0.399186  -0.831262   1.571665
   10  C  1  Z    0.010226   1.043648  -0.259964  -0.213545   0.476115
   11  C  1  X    0.157876   0.044615  -0.899899  -0.360216   0.861426
   12  C  1  Y   -0.344926  -0.262003  -0.607195   0.488668  -0.569935
   13  C  1  Z   -0.161686   0.179741  -0.305929   0.500239  -0.101700
   14  C  1 XX    0.135871  -0.445136  -0.049222   0.004840  -0.042466
   15  C  1 YY   -0.005194  -0.025925  -0.165874  -0.075781   0.044935
   16  C  1 ZZ   -0.044711  -0.013474  -0.056954  -0.152293  -0.003785
   17  C  1 XY   -0.017824  -0.076305  -0.002889  -0.031687   0.005805
   18  C  1 XZ   -0.077733   0.093865   0.017399   0.071862   0.075503
   19  C  1 YZ   -0.014610  -0.038597   0.069619  -0.134665  -0.044458
   20  C  1 XX    0.248474  -0.688412  -0.809175  -0.171718  -0.143210
   21  C  1 YY   -0.171730  -0.484872  -0.483151  -0.374943  -0.209562
   22  C  1 ZZ   -0.492622  -0.094365  -0.845347  -0.629186  -0.172201
   23  C  1 XY    0.458639   0.291521  -0.274563  -0.239300  -0.491926
   24  C  1 XZ    0.096662  -0.080935  -0.083352   0.428307   0.279370
   25  C  1 YZ    0.061334  -0.136291   0.225088  -0.138593   0.034915
   26  C  1 XXX  -0.114349  -0.474025   0.306584  -0.133748   0.391098
   27  C  1 YYY  -0.211346  -0.174254  -0.034787   0.254762  -0.517814
   28  C  1 ZZZ  -0.054493  -0.357761   0.171219   0.131001  -0.285549
   29  C  1 XXY  -0.131532   0.041601  -0.124497   0.123266  -0.249162
   30  C  1 XXZ   0.155561  -0.338505   0.006389   0.222645   0.008266
   31  C  1 YYX   0.131924  -0.134096  -0.043059  -0.188993   0.002664
   32  C  1 YYZ  -0.133761  -0.140701   0.177355  -0.154456  -0.120421
   33  C  1 ZZX   0.006841  -0.087543   0.070077  -0.235239   0.129370
   34  C  1 ZZY  -0.266350   0.014382   0.040581   0.081080  -0.073134
   35  C  1 XYZ  -0.007521   0.082754  -0.091930   0.110528   0.015388

                     11         12         13         14         15
                    0.4891     0.6630     0.7779     0.9273     1.0818
                     A          A          A          A          A   
    1  C  1  S    0.239891  -0.019933   0.031758   0.289764   0.296731
    2  C  1  S    0.888011  -0.165552   0.100512   0.192073   1.278798
    3  C  1  S   -0.798757   0.280089   0.263033  -0.337889  -0.796854
    4  C  1  S    2.139032  -1.249910  -1.346709  -0.371198   1.948786
    5  C  1  X    0.180426   0.012802  -1.481199  -1.594481  -0.602129
    6  C  1  Y    0.340169   0.174662  -0.309346  -0.218563   0.487435
    7  C  1  Z   -0.210390  -0.426071  -0.706894   0.785454   0.375091
    8  C  1  X   -0.318242   0.357174   2.237547   2.182395   1.039881
    9  C  1  Y   -1.116145   0.251648  -0.296699   0.733213  -0.516632
   10  C  1  Z    1.128302   1.583445   1.151320  -0.435407  -0.126568
   11  C  1  X    0.256684  -0.297578  -0.095825  -0.073691   0.006933
   12  C  1  Y    0.616254  -0.245311   0.306055  -0.088980  -0.059743
   13  C  1  Z   -0.815796  -0.848638  -0.153526  -0.235706   0.000227
   14  C  1 XX   -0.166278   0.056414  -0.134113  -0.196857   0.047732
   15  C  1 YY   -0.210579   0.089015   0.166720   0.058931  -0.210089
   16  C  1 ZZ   -0.221984   0.193182   0.018319   0.101035  -0.167185
   17  C  1 XY    0.087311  -0.095752   0.065294   0.074803   0.039177
   18  C  1 XZ   -0.014049   0.131488   0.000682   0.014216  -0.201269
   19  C  1 YZ    0.072692  -0.096642   0.076971   0.108937   0.006401
   20  C  1 XX   -1.036170   0.477516   0.429553   0.638320  -1.484252
   21  C  1 YY   -0.989951   0.415019   0.404195  -0.282286  -1.556909
   22  C  1 ZZ   -0.919877   0.462600   0.869799   0.013209  -0.960421
   23  C  1 XY   -0.173009   0.213557  -0.233910  -0.270933   0.185948
   24  C  1 XZ   -0.208486   0.305020   0.262952  -0.210271   0.406179
   25  C  1 YZ   -0.088659  -0.319055   0.402464  -0.351775   0.063449
   26  C  1 XXX   0.086083  -0.036996  -0.551548  -0.251353  -0.339332
   27  C  1 YYY   0.280093  -0.097190   0.050458  -0.233135  -0.016103
   28  C  1 ZZZ  -0.194917  -0.362023  -0.314518  -0.210781  -0.377747
   29  C  1 XXY   0.088465   0.031159  -0.076724  -0.238219  -0.104768
   30  C  1 XXZ  -0.160557  -0.122570  -0.117838   0.035863   0.161489
   31  C  1 YYX   0.043408  -0.048919  -0.271734  -0.349030  -0.072354
   32  C  1 YYZ  -0.137124  -0.312151  -0.292714   0.238151   0.032172
   33  C  1 ZZX  -0.030700  -0.214671   0.005115   0.016809  -0.006818
   34  C  1 ZZY  -0.033574   0.017706   0.083431  -0.039528   0.330638
   35  C  1 XYZ  -0.055442   0.166351  -0.058434  -0.253603  -0.042515

                     16         17         18         19         20
                    1.2769     1.6799     1.7162     1.8425     1.9768
                     A          A          A          A          A   
    1  C  1  S    0.386473   0.036108  -0.074790   0.055987  -0.056402
    2  C  1  S    1.753433   0.862685  -0.182190   0.892968  -0.243951
    3  C  1  S   -0.529558   0.008714   0.294607   0.004366   0.078290
    4  C  1  S    0.200729   0.071582  -0.686848  -0.036604   0.026106
    5  C  1  X   -2.464650  -0.575226  -0.310846   0.118457   0.468753
    6  C  1  Y   -1.138478  -0.262121  -0.356539   0.323044   0.252351
    7  C  1  Z   -0.011593  -3.274984  -1.576574  -1.604168  -0.672509
    8  C  1  X    4.817098   1.301965   0.525378  -0.941026  -0.571460
    9  C  1  Y    1.990062   0.974267   0.650343  -1.198972   0.162926
   10  C  1  Z   -0.390491   4.258317   2.670501   2.033468   1.760212
   11  C  1  X    0.034745   0.046233  -0.027117   0.187527  -0.186036
   12  C  1  Y   -0.000937  -0.110292  -0.008751   0.078868  -0.145941
   13  C  1  Z    0.120523   0.494941   0.110980   0.292240  -0.042932
   14  C  1 XX   -0.068936  -0.299811   0.375389  -0.390194  -0.040098
   15  C  1 YY   -0.166935  -0.168573  -0.307645  -0.118587  -0.135213
   16  C  1 ZZ   -0.210864  -0.227979  -0.435822   0.109663   0.170481
   17  C  1 XY    0.019484  -0.015601   0.168087   0.085568   0.163090
   18  C  1 XZ    0.043515  -0.029669  -0.445269   0.027217  -0.169097
   19  C  1 YZ    0.108954  -0.089144  -0.165519   0.337473  -0.121184
   20  C  1 XX   -0.915753   0.094308  -0.120476  -0.259211   0.114135
   21  C  1 YY   -0.304413  -0.750434   0.733585   0.130279   0.163670
   22  C  1 ZZ   -0.797150  -0.259095   0.609899  -0.682295  -0.111955
   23  C  1 XY   -0.197238   0.004333  -0.102650   0.042389  -0.297490
   24  C  1 XZ   -0.192438  -0.094604   0.246253   0.135638   0.108494
   25  C  1 YZ   -0.163868   0.238511  -0.000308  -0.481200   0.050428
   26  C  1 XXX  -1.360262  -0.473601   0.039645   0.244696  -0.464458
   27  C  1 YYY  -0.634580  -0.451376   0.051612   0.589693  -0.254669
   28  C  1 ZZZ   0.357924  -0.773491  -1.272440  -0.366060  -0.838416
   29  C  1 XXY  -0.052080  -0.008915  -0.247374   0.003490   0.243491
   30  C  1 XXZ  -0.014499  -0.631812  -0.088075  -0.328748  -0.142740
   31  C  1 YYX  -0.493551  -0.386324  -0.028995   0.118302   0.520252
   32  C  1 YYZ  -0.041061  -0.383603  -0.065114  -0.099986  -0.132944
   33  C  1 ZZX  -0.925926  -0.343425  -0.317635   0.591194   0.627308
   34  C  1 ZZY  -0.377814  -0.185746  -0.200356   0.349651  -0.343552
   35  C  1 XYZ   0.173045   0.027827  -0.201195  -0.349199   0.342093

                     21         22         23         24         25
                    2.2525     2.4956     2.7443     3.0709     3.1709
                     A          A          A          A          A   
    1  C  1  S   -0.250272  -0.098677   0.072912  -0.196651  -0.144816
    2  C  1  S   -0.603641   0.169928   0.319891  -1.007018  -0.927725
    3  C  1  S    0.260174   0.217134  -0.233958   0.140190   0.102904
    4  C  1  S    0.234208  -0.208749   0.174151   0.154812   0.139442
    5  C  1  X    0.716203   1.086637   0.306929  -0.078533  -0.004412
    6  C  1  Y   -2.912212  -1.899866  -2.242715   0.580718   1.070775
    7  C  1  Z    0.325821  -0.393945   0.084376  -1.054321  -0.289680
    8  C  1  X   -1.011767  -1.504963  -1.021110  -0.115596   0.323251
    9  C  1  Y    5.098308   3.019864   3.865541  -1.588252  -0.784914
   10  C  1  Z    0.083255   0.295068  -0.426119   3.077583   1.121799
   11  C  1  X   -0.136349  -0.209196   0.022752   0.018018  -0.084905
   12  C  1  Y    0.335521   0.274974   0.300362   0.013420  -0.338677
   13  C  1  Z   -0.145891   0.103324   0.035707  -0.045000  -0.032332
   14  C  1 XX    0.416644  -0.448261  -0.028389   0.672881   0.292117
   15  C  1 YY    0.126013   0.137848  -0.325853   0.178815   0.154058
   16  C  1 ZZ   -0.374756  -0.064616   0.406178  -0.245213   0.067783
   17  C  1 XY    0.075253   0.076059   0.193716   0.239142   0.282529
   18  C  1 XZ    0.094415  -0.135319   0.190583   0.725377   0.036663
   19  C  1 YZ    0.340030   0.392190  -0.660172   0.030858  -0.092381
   20  C  1 XX   -0.126666   0.299889  -0.237748  -0.006758   0.114487
   21  C  1 YY   -0.119482  -0.148619   0.027524   0.221604   0.211058
   22  C  1 ZZ    0.397555   0.103757  -0.383772   0.387630   0.242429
   23  C  1 XY    0.000101  -0.088772  -0.044334  -0.107089  -0.170749
   24  C  1 XZ    0.126278  -0.078633  -0.218668  -0.496568  -0.077974
   25  C  1 YZ   -0.236953  -0.281303   0.382929  -0.000819   0.084577
   26  C  1 XXX   0.091953   0.294249   0.482596   0.002815  -0.306871
   27  C  1 YYY  -1.593847  -1.149588  -1.008091   0.647886  -0.173890
   28  C  1 ZZZ  -0.134565  -0.138692   0.380384  -1.350130  -0.221387
   29  C  1 XXY  -0.465234  -0.598223  -0.896769  -0.005630   0.357333
   30  C  1 XXZ  -0.320146   0.432386   0.265947  -0.657363  -0.055159
   31  C  1 YYX  -0.023021   0.572703   0.058973   0.217908   0.159649
   32  C  1 YYZ  -0.062126  -0.177823  -0.149391  -0.494650  -0.878909
   33  C  1 ZZX   0.386471  -0.090340   0.416030   0.105604  -0.075808
   34  C  1 ZZY  -1.005159   0.046301  -0.545702   0.637989   0.117642
   35  C  1 XYZ  -0.165808   0.102788  -0.019884   0.205988  -0.546916

                     26         27         28         29         30
                    3.2695     3.6129     3.7413     4.0335     4.2533
                     A          A          A          A          A   
    1  C  1  S    0.105393   0.251443   0.895400  -0.688760   1.468131
    2  C  1  S    0.281910   0.333533   3.242604  -2.389718   5.776114
    3  C  1  S   -0.187535  -0.502382  -1.130026   0.963654  -1.619138
    4  C  1  S    0.022555   0.102993  -0.468822   0.268654  -1.180688
    5  C  1  X   -0.081715   0.963383   0.523121  -1.088972  -0.183597
    6  C  1  Y   -0.266129   0.022650   0.830341   0.468515  -0.117714
    7  C  1  Z   -1.100781  -0.943844  -0.000557   0.193214  -0.303790
    8  C  1  X    0.784532  -3.896885  -2.524759   4.783160   1.747696
    9  C  1  Y    0.298836   0.719156  -1.847590  -0.686553   1.010403
   10  C  1  Z    4.088776   4.245627  -1.722411   0.119603   2.379670
   11  C  1  X   -0.076178   0.142529   0.148434  -0.212495  -0.136436
   12  C  1  Y    0.098982  -0.084438  -0.105738  -0.118556  -0.091529
   13  C  1  Z   -0.164709  -0.184940   0.237677  -0.095379  -0.153177
   14  C  1 XX   -0.000420  -0.016005  -0.465643   0.251467  -1.235747
   15  C  1 YY    0.103571   0.123682  -0.141586   0.125369  -0.458262
   16  C  1 ZZ   -0.096879   0.171068  -0.595783   0.244537  -0.629202
   17  C  1 XY   -0.808666   0.234277   0.192561   0.307457   0.372845
   18  C  1 XZ    0.073824  -0.372233   0.226713  -0.229713   0.273379
   19  C  1 YZ   -0.033950   0.135718   0.239319   0.281351  -0.134198
   20  C  1 XX   -0.190306  -0.087704  -0.707052   0.547162  -0.756850
   21  C  1 YY   -0.040943  -0.113437  -0.839284   0.608247  -1.191561
   22  C  1 ZZ   -0.122302  -0.299407  -0.473659   0.466670  -1.105037
   23  C  1 XY    0.423318  -0.088189  -0.042703  -0.102196  -0.138886
   24  C  1 XZ   -0.206674   0.198694  -0.235077   0.072481  -0.102600
   25  C  1 YZ    0.022396  -0.031909  -0.077760  -0.146399   0.086939
   26  C  1 XXX  -0.407657   2.248015   1.475103  -2.435459  -0.975421
   27  C  1 YYY  -0.159486  -0.401172   1.097072   0.538152  -0.446020
   28  C  1 ZZZ  -2.052448  -1.896057   0.778453  -0.018950  -1.707955
   29  C  1 XXY   0.019606  -0.240408   0.502823  -0.187017  -0.216627
   30  C  1 XXZ  -0.449803  -1.191388   1.002975   0.021750  -0.477944
   31  C  1 YYX  -0.444599   0.659281   0.282234  -1.428507  -0.420138
   32  C  1 YYZ  -1.030665  -1.164344   0.277551  -0.381478  -0.349294
   33  C  1 ZZX   0.019662   0.748463   0.697254  -0.815271  -0.703700
   34  C  1 ZZY  -0.076358  -0.207070  -0.014134   0.117822  -0.578413
   35  C  1 XYZ  -0.038098   0.249634   0.136153   0.250070  -0.130935

                     31         32         33         34         35
                    4.5109     4.6271     5.9896     6.2199     7.9491
                     A          A          A          A          A   
    1  C  1  S    0.522167   1.114505   4.079896   1.725449   3.893211
    2  C  1  S    1.997995   3.529744  12.536534   5.865991  17.216772
    3  C  1  S   -0.444109  -1.598899  -5.746997  -2.151900  -3.039903
    4  C  1  S   -0.566938  -0.500120  -2.433406  -1.328340  -4.531202
    5  C  1  X   -0.126672   0.197193   0.038450   0.034041  -0.075502
    6  C  1  Y    0.154275   0.282875  -0.286376   0.023944   0.125128
    7  C  1  Z   -0.018014  -0.086180  -0.008500  -0.464054   0.506432
    8  C  1  X   -0.222648  -0.126472   0.698887  -0.017272  -0.355949
    9  C  1  Y    4.210404  -1.935734   0.862353  -1.197168  -0.511705
   10  C  1  Z   -0.932811   0.438139  -0.838126   1.141260  -0.414554
   11  C  1  X    0.058745  -0.068746  -0.095858   0.008847   0.081143
   12  C  1  Y   -0.608070   0.097769  -0.011753   0.150335   0.010419
   13  C  1  Z    0.161522  -0.031547   0.098119   0.058559  -0.139577
   14  C  1 XX   -0.252565  -0.429035  -1.001767  -0.576509  -3.287752
   15  C  1 YY   -0.439273   0.047180  -1.044267  -1.599954  -3.360167
   16  C  1 ZZ   -0.383011  -0.533274  -1.295090  -0.126979  -3.488052
   17  C  1 XY   -0.240746  -0.231249   0.050459  -0.104599  -0.014636
   18  C  1 XZ    0.142100  -0.169003  -0.147327   0.194029  -0.047021
   19  C  1 YZ    0.212879  -0.106458  -0.041878   0.420696  -0.094987
   20  C  1 XX   -0.327123  -0.586724  -2.343517  -1.014897  -2.411045
   21  C  1 YY   -0.199180  -1.075311  -2.237903  -0.652241  -2.367340
   22  C  1 ZZ   -0.219506  -0.600007  -2.281030  -1.197951  -2.341338
   23  C  1 XY    0.114651   0.016824   0.034717   0.018997   0.004751
   24  C  1 XZ   -0.073390   0.124431   0.083515  -0.049932   0.019437
   25  C  1 YZ   -0.095469   0.081364  -0.005808  -0.147158   0.036824
   26  C  1 XXX   0.085527  -0.264336  -0.492423  -0.004514   0.204795
   27  C  1 YYY  -2.276568   1.802901  -0.684676   0.839670   0.167137
   28  C  1 ZZZ   0.550665  -0.021248   0.586425  -0.607153   0.164926
   29  C  1 XXY  -1.513287   0.068724  -0.140748   0.371655   0.124098
   30  C  1 XXZ   0.220490  -0.301342   0.205085  -0.181157  -0.044641
   31  C  1 YYX   0.247165   0.435678  -0.329673   0.132078   0.072761
   32  C  1 YYZ   0.169604  -0.255386   0.264010  -0.287229  -0.068761
   33  C  1 ZZX   0.089244  -0.022385  -0.083499  -0.209119   0.185969
   34  C  1 ZZY  -1.282774   0.257516   0.019343   0.150501   0.239488
   35  C  1 XYZ   0.010186  -0.088716   0.054643  -0.058587   0.037768
 ...... END OF RHF CALCULATION ......
 STEP CPU TIME =     0.01 TOTAL CPU TIME =        0.1 (    0.0 MIN)
 TOTAL WALL CLOCK TIME=        0.8 SECONDS, CPU UTILIZATION IS   7.32%

     ----------------------------------------------------------------
     PROPERTY VALUES FOR THE RHF   SELF-CONSISTENT FIELD WAVEFUNCTION
     ----------------------------------------------------------------

          -----------------
          ENERGY COMPONENTS
          -----------------

         WAVEFUNCTION NORMALIZATION =       1.0000000000

                ONE ELECTRON ENERGY =     -64.6484708409
                TWO ELECTRON ENERGY =      15.3264542332
           NUCLEAR REPULSION ENERGY =       0.0000000000
                                      ------------------
                       TOTAL ENERGY =     -49.3220166076

 ELECTRON-ELECTRON POTENTIAL ENERGY =      15.3264542332
  NUCLEUS-ELECTRON POTENTIAL ENERGY =    -106.7240730340
   NUCLEUS-NUCLEUS POTENTIAL ENERGY =       0.0000000000
                                      ------------------
             TOTAL POTENTIAL ENERGY =     -91.3976188008
               TOTAL KINETIC ENERGY =      42.0756021931
                 VIRIAL RATIO (V/T) =       2.1722236649

          ---------------------------------------
          MULLIKEN AND LOWDIN POPULATION ANALYSES
          ---------------------------------------

     ATOMIC MULLIKEN POPULATION IN EACH MOLECULAR ORBITAL

                      1          2          3

                  2.000000   2.000000   2.000000

    1             2.000000   2.000000   2.000000

               ----- POPULATIONS IN EACH AO -----
                             MULLIKEN      LOWDIN
              1  C  1  S      1.84823     1.73850
              2  C  1  S      1.91584     0.42531
              3  C  1  S      0.03504     0.37093
              4  C  1  S     -0.65594     0.10517
              5  C  1  X      2.83654     1.09444
              6  C  1  Y      0.19118     0.06995
              7  C  1  Z      0.52737     0.21572
              8  C  1  X     -1.09725     0.21051
              9  C  1  Y     -0.13069     0.02021
             10  C  1  Z     -0.09271     0.08222
             11  C  1  X     -0.41025     0.02455
             12  C  1  Y     -0.01949     0.00325
             13  C  1  Z     -0.09863     0.00167
             14  C  1 XX      0.49657     0.52178
             15  C  1 YY     -0.14138     0.03107
             16  C  1 ZZ      0.06071     0.21866
             17  C  1 XY      0.00215     0.00219
             18  C  1 XZ      0.08736     0.08063
             19  C  1 YZ      0.01034     0.00956
             20  C  1 XX      0.02226     0.11842
             21  C  1 YY     -0.01620     0.01693
             22  C  1 ZZ      0.11628     0.13464
             23  C  1 XY      0.00258     0.00255
             24  C  1 XZ     -0.00058     0.00615
             25  C  1 YZ      0.00022     0.00100
             26  C  1 XXX     0.25278     0.17447
             27  C  1 YYY     0.03128     0.01364
             28  C  1 ZZZ     0.04825     0.05954
             29  C  1 XXY     0.01388     0.00693
             30  C  1 XXZ     0.07830     0.07104
             31  C  1 YYX    -0.08866     0.00125
             32  C  1 YYZ    -0.02058     0.01182
             33  C  1 ZZX     0.11381     0.10173
             34  C  1 ZZY     0.07866     0.05085
             35  C  1 XYZ     0.00274     0.00274

          ----- MULLIKEN ATOMIC OVERLAP POPULATIONS -----
          (OFF-DIAGONAL ELEMENTS NEED TO BE MULTIPLIED BY 2)

             1

    1    6.0000000

          TOTAL MULLIKEN AND LOWDIN ATOMIC POPULATIONS
       ATOM         MULL.POP.    CHARGE          LOW.POP.     CHARGE
    1 C             6.000000    0.000000         6.000000    0.000000

          -------------------------------
          BOND ORDER AND VALENCE ANALYSIS     BOND ORDER THRESHOLD=0.050
          -------------------------------

                   BOND                       BOND                       BOND
  ATOM PAIR DIST  ORDER      ATOM PAIR DIST  ORDER      ATOM PAIR DIST  ORDER

                       TOTAL       BONDED        FREE
      ATOM            VALENCE     VALENCE     VALENCE
    1 C                 0.000       0.000       0.000

          ---------------------
          ELECTROSTATIC MOMENTS
          ---------------------

 POINT   1           X           Y           Z (BOHR)    CHARGE
                 7.558904    9.448630    9.448630        0.00 (A.U.)
         DX          DY          DZ         /D/  (DEBYE)
    -0.595567   -1.327090   -0.892153    1.706402
 ...... END OF PROPERTY EVALUATION ......
 STEP CPU TIME =     0.00 TOTAL CPU TIME =        0.1 (    0.0 MIN)
 TOTAL WALL CLOCK TIME=        0.9 SECONDS, CPU UTILIZATION IS   6.45%



* * * * ERROR * * * *
 MEMORY LEAK DETECTED.      1890 WORDS ARE STILL ALLOCATED SOMEWHERE






* * * * ERROR * * * *
 MEMORY LEAK DETECTED.      1890 WORDS ARE STILL ALLOCATED SOMEWHERE



                580000  WORDS OF DYNAMIC MEMORY USED
 EXECUTION OF GAMESS TERMINATED NORMALLY Sun Oct  9 17:44:33 2016
 DDI: 263640 bytes (0.3 MB / 0 MWords) used by master data server.

 ----------------------------------------
 CPU timing information for all processes
 ========================================
 0: 0.36 + 0.34 = 0.71
 ----------------------------------------
 ddikick.x: exited gracefully.
----- accounting info -----
Files used on the master node tiger-r12n11 were:
-rw-r--r-- 1 ckrauter eac    2079 Oct  9 17:44 /tmp/gamess.F05
-rw-r--r-- 1 ckrauter eac  360032 Oct  9 17:44 /tmp/gamess.F08
-rw-r--r-- 1 ckrauter eac 1537840 Oct  9 17:44 /tmp/gamess.F10
Sun Oct  9 17:44:36 EDT 2016
0.174u 0.020s 0:04.23 4.4%	0+0k 0+8io 0pf+0w
